# vtk DataFile Version 3.0
LifeV output
ASCII
DATASET UNSTRUCTURED_GRID
POINTS 25600 float
0 0.000684035 0
0 0.00359712 0
0 0.00880944 0
0 0.0162735 0
0 0.0259197 0
0 0.0376581 0
0 0.0513791 0
0 0.0669545 0
0 0.0842389 0
0 0.103071 0
0 0.123275 0
0 0.144662 0
0 0.167033 0
0 0.190178 0
0 0.213882 0
0 0.237923 0
0 0.262077 0
0 0.286118 0
0 0.309822 0
0 0.332967 0
0 0.355338 0
0 0.376725 0
0 0.396929 0
0 0.415761 0
0 0.433046 0
0 0.448621 0
0 0.462342 0
0 0.47408 0
0 0.483727 0
0 0.491191 0
0 0.496403 0
0 0.499316 0
0 0.000670891 0.000133449
0 0.003528 0.000701764
0 0.00864017 0.00171864
0 0.0159608 0.0031748
0 0.0254217 0.00505668
0 0.0369345 0.00734673
0 0.0503918 0.0100236
0 0.065668 0.0130622
0 0.0826203 0.0164342
0 0.101091 0.0201082
0 0.120906 0.0240498
0 0.141883 0.0282222
0 0.163823 0.0325865
0 0.186524 0.0371019
0 0.209772 0.0417263
0 0.233351 0.0464165
0 0.257041 0.0511287
0 0.28062 0.0558189
0 0.303869 0.0604432
0 0.326569 0.0649587
0 0.34851 0.069323
0 0.369486 0.0734954
0 0.389302 0.077437
0 0.407772 0.081111
0 0.424725 0.084483
0 0.440001 0.0875216
0 0.453458 0.0901984
0 0.464971 0.0924885
0 0.474432 0.0943704
0 0.481752 0.0958265
0 0.486865 0.0968434
0 0.489722 0.0974117
0 0.000631966 0.000261769
0 0.00332331 0.00137656
0 0.00813886 0.00337123
0 0.0150347 0.00622759
0 0.0239467 0.00991904
0 0.0347915 0.0144111
0 0.0474681 0.0196619
0 0.0618579 0.0256224
0 0.0778266 0.0322368
0 0.0952252 0.0394436
0 0.113891 0.0471753
0 0.13365 0.0553598
0 0.154318 0.0639207
0 0.175702 0.072778
0 0.197601 0.0818491
0 0.219812 0.0910492
0 0.242127 0.100292
0 0.264339 0.109493
0 0.286238 0.118564
0 0.307622 0.127421
0 0.328289 0.135982
0 0.348048 0.144166
0 0.366715 0.151898
0 0.384113 0.159105
0 0.400082 0.165719
0 0.414472 0.17168
0 0.427148 0.176931
0 0.437993 0.181423
0 0.446905 0.185114
0 0.453801 0.18797
0 0.458616 0.189965
0 0.461308 0.19108
0 0.000568754 0.000380029
0 0.0029909 0.00199845
0 0.00732478 0.00489426
0 0.0135309 0.00904106
0 0.0215515 0.0144002
0 0.0313116 0.0209217
0 0.0427201 0.0285447
0 0.0556706 0.0371979
0 0.0700421 0.0468006
0 0.0857005 0.0572632
0 0.102499 0.0684879
0 0.120282 0.08037
0 0.138883 0.0927985
0 0.158127 0.105657
0 0.177836 0.118826
0 0.197826 0.132183
0 0.217909 0.145602
0 0.237898 0.158959
0 0.257607 0.172128
0 0.276852 0.184987
0 0.295453 0.197415
0 0.313235 0.209297
0 0.330034 0.220522
0 0.345693 0.230984
0 0.360064 0.240587
0 0.373015 0.24924
0 0.384423 0.256863
0 0.394183 0.263385
0 0.402204 0.268744
0 0.40841 0.272891
0 0.412744 0.275787
0 0.415166 0.277405
0 0.000483685 0.000483685
0 0.00254355 0.00254355
0 0.00622921 0.00622921
0 0.0115071 0.0115071
0 0.018328 0.018328
0 0.0266283 0.0266283
0 0.0363305 0.0363305
0 0.047344 0.047344
0 0.0595659 0.0595659
0 0.0728822 0.0728822
0 0.0871686 0.0871686
0 0.102292 0.102292
0 0.11811 0.11811
0 0.134476 0.134476
0 0.151237 0.151237
0 0.168237 0.168237
0 0.185316 0.185316
0 0.202316 0.202316
0 0.219077 0.219077
0 0.235443 0.235443
0 0.251262 0.251262
0 0.266385 0.266385
0 0.280671 0.280671
0 0.293987 0.293987
0 0.306209 0.306209
0 0.317223 0.317223
0 0.326925 0.326925
0 0.335225 0.335225
0 0.342046 0.342046
0 0.347324 0.347324
0 0.35101 0.35101
0 0.35307 0.35307
0 0.000380029 0.000568754
0 0.00199845 0.0029909
0 0.00489426 0.00732478
0 0.00904106 0.0135309
0 0.0144002 0.0215515
0 0.0209217 0.0313116
0 0.0285447 0.0427201
0 0.0371979 0.0556706
0 0.0468006 0.0700421
0 0.0572632 0.0857005
0 0.0684879 0.102499
0 0.08037 0.120282
0 0.0927985 0.138883
0 0.105657 0.158127
0 0.118826 0.177836
0 0.132183 0.197826
0 0.145602 0.217909
0 0.158959 0.237898
0 0.172128 0.257607
0 0.184987 0.276852
0 0.197415 0.295453
0 0.209297 0.313235
0 0.220522 0.330034
0 0.230984 0.345693
0 0.240587 0.360064
0 0.24924 0.373015
0 0.256863 0.384423
0 0.263385 0.394183
0 0.268744 0.402204
0 0.272891 0.40841
0 0.275787 0.412744
0 0.277405 0.415166
0 0.000261769 0.000631966
0 0.00137656 0.00332331
0 0.00337123 0.00813886
0 0.00622759 0.0150347
0 0.00991904 0.0239467
0 0.0144111 0.0347915
0 0.0196619 0.0474681
0 0.0256224 0.0618579
0 0.0322368 0.0778266
0 0.0394436 0.0952252
0 0.0471753 0.113891
0 0.0553598 0.13365
0 0.0639207 0.154318
0 0.072778 0.175702
0 0.0818491 0.197601
0 0.0910492 0.219812
0 0.100292 0.242127
0 0.109493 0.264339
0 0.118564 0.286238
0 0.127421 0.307622
0 0.135982 0.328289
0 0.144166 0.348048
0 0.151898 0.366715
0 0.159105 0.384113
0 0.165719 0.400082
0 0.17168 0.414472
0 0.176931 0.427148
0 0.181423 0.437993
0 0.185114 0.446905
0 0.18797 0.453801
0 0.189965 0.458616
0 0.19108 0.461308
0 0.000133449 0.000670891
0 0.000701764 0.003528
0 0.00171864 0.00864017
0 0.0031748 0.0159608
0 0.00505668 0.0254217
0 0.00734673 0.0369345
0 0.0100236 0.0503918
0 0.0130622 0.065668
0 0.0164342 0.0826203
0 0.0201082 0.101091
0 0.0240498 0.120906
0 0.0282222 0.141883
0 0.0325865 0.163823
0 0.0371019 0.186524
0 0.0417263 0.209772
0 0.0464165 0.233351
0 0.0511287 0.257041
0 0.0558189 0.28062
0 0.0604432 0.303869
0 0.0649587 0.326569
0 0.069323 0.34851
0 0.0734954 0.369486
0 0.077437 0.389302
0 0.081111 0.407772
0 0.084483 0.424725
0 0.0875216 0.440001
0 0.0901984 0.453458
0 0.0924885 0.464971
0 0.0943704 0.474432
0 0.0958265 0.481752
0 0.0968434 0.486865
0 0.0974117 0.489722
0 4.1885e-20 0.000684035
0 2.2026e-19 0.00359712
0 5.39422e-19 0.00880944
0 9.96463e-19 0.0162735
0 1.58712e-18 0.0259197
0 2.30589e-18 0.0376581
0 3.14606e-18 0.0513791
0 4.09978e-18 0.0669545
0 5.15815e-18 0.0842389
0 6.31128e-18 0.103071
0 7.54842e-18 0.123275
0 8.858e-18 0.144662
0 1.02278e-17 0.167033
0 1.16451e-17 0.190178
0 1.30965e-17 0.213882
0 1.45686e-17 0.237923
0 1.60476e-17 0.262077
0 1.75197e-17 0.286118
0 1.89711e-17 0.309822
0 2.03884e-17 0.332967
0 2.17582e-17 0.355338
0 2.30678e-17 0.376725
0 2.43049e-17 0.396929
0 2.5458e-17 0.415761
0 2.65164e-17 0.433046
0 2.74701e-17 0.448621
0 2.83103e-17 0.462342
0 2.9029e-17 0.47408
0 2.96197e-17 0.483727
0 3.00767e-17 0.491191
0 3.03959e-17 0.496403
0 3.05743e-17 0.499316
0 -0.000133449 0.000670891
0 -0.000701764 0.003528
0 -0.00171864 0.00864017
0 -0.0031748 0.0159608
0 -0.00505668 0.0254217
0 -0.00734673 0.0369345
0 -0.0100236 0.0503918
0 -0.0130622 0.065668
0 -0.0164342 0.0826203
0 -0.0201082 0.101091
0 -0.0240498 0.120906
0 -0.0282222 0.141883
0 -0.0325865 0.163823
0 -0.0371019 0.186524
0 -0.0417263 0.209772
0 -0.0464165 0.233351
0 -0.0511287 0.257041
0 -0.0558189 0.28062
0 -0.0604432 0.303869
0 -0.0649587 0.326569
0 -0.069323 0.34851
0 -0.0734954 0.369486
0 -0.077437 0.389302
0 -0.081111 0.407772
0 -0.084483 0.424725
0 -0.0875216 0.440001
0 -0.0901984 0.453458
0 -0.0924885 0.464971
0 -0.0943704 0.474432
0 -0.0958265 0.481752
0 -0.0968434 0.486865
0 -0.0974117 0.489722
0 -0.000261769 0.000631966
0 -0.00137656 0.00332331
0 -0.00337123 0.00813886
0 -0.00622759 0.0150347
0 -0.00991904 0.0239467
0 -0.0144111 0.0347915
0 -0.0196619 0.0474681
0 -0.0256224 0.0618579
0 -0.0322368 0.0778266
0 -0.0394436 0.0952252
0 -0.0471753 0.113891
0 -0.0553598 0.13365
0 -0.0639207 0.154318
0 -0.072778 0.175702
0 -0.0818491 0.197601
0 -0.0910492 0.219812
0 -0.100292 0.242127
0 -0.109493 0.264339
0 -0.118564 0.286238
0 -0.127421 0.307622
0 -0.135982 0.328289
0 -0.144166 0.348048
0 -0.151898 0.366715
0 -0.159105 0.384113
0 -0.165719 0.400082
0 -0.17168 0.414472
0 -0.176931 0.427148
0 -0.181423 0.437993
0 -0.185114 0.446905
0 -0.18797 0.453801
0 -0.189965 0.458616
0 -0.19108 0.461308
0 -0.000380029 0.000568754
0 -0.00199845 0.0029909
0 -0.00489426 0.00732478
0 -0.00904106 0.0135309
0 -0.0144002 0.0215515
0 -0.0209217 0.0313116
0 -0.0285447 0.0427201
0 -0.0371979 0.0556706
0 -0.0468006 0.0700421
0 -0.0572632 0.0857005
0 -0.0684879 0.102499
0 -0.08037 0.120282
0 -0.0927985 0.138883
0 -0.105657 0.158127
0 -0.118826 0.177836
0 -0.132183 0.197826
0 -0.145602 0.217909
0 -0.158959 0.237898
0 -0.172128 0.257607
0 -0.184987 0.276852
0 -0.197415 0.295453
0 -0.209297 0.313235
0 -0.220522 0.330034
0 -0.230984 0.345693
0 -0.240587 0.360064
0 -0.24924 0.373015
0 -0.256863 0.384423
0 -0.263385 0.394183
0 -0.268744 0.402204
0 -0.272891 0.40841
0 -0.275787 0.412744
0 -0.277405 0.415166
0 -0.000483685 0.000483685
0 -0.00254355 0.00254355
0 -0.00622921 0.00622921
0 -0.0115071 0.0115071
0 -0.018328 0.018328
0 -0.0266283 0.0266283
0 -0.0363305 0.0363305
0 -0.047344 0.047344
0 -0.0595659 0.0595659
0 -0.0728822 0.0728822
0 -0.0871686 0.0871686
0 -0.102292 0.102292
0 -0.11811 0.11811
0 -0.134476 0.134476
0 -0.151237 0.151237
0 -0.168237 0.168237
0 -0.185316 0.185316
0 -0.202316 0.202316
0 -0.219077 0.219077
0 -0.235443 0.235443
0 -0.251262 0.251262
0 -0.266385 0.266385
0 -0.280671 0.280671
0 -0.293987 0.293987
0 -0.306209 0.306209
0 -0.317223 0.317223
0 -0.326925 0.326925
0 -0.335225 0.335225
0 -0.342046 0.342046
0 -0.347324 0.347324
0 -0.35101 0.35101
0 -0.35307 0.35307
0 -0.000568754 0.000380029
0 -0.0029909 0.00199845
0 -0.00732478 0.00489426
0 -0.0135309 0.00904106
0 -0.0215515 0.0144002
0 -0.0313116 0.0209217
0 -0.0427201 0.0285447
0 -0.0556706 0.0371979
0 -0.0700421 0.0468006
0 -0.0857005 0.0572632
0 -0.102499 0.0684879
0 -0.120282 0.08037
0 -0.138883 0.0927985
0 -0.158127 0.105657
0 -0.177836 0.118826
0 -0.197826 0.132183
0 -0.217909 0.145602
0 -0.237898 0.158959
0 -0.257607 0.172128
0 -0.276852 0.184987
0 -0.295453 0.197415
0 -0.313235 0.209297
0 -0.330034 0.220522
0 -0.345693 0.230984
0 -0.360064 0.240587
0 -0.373015 0.24924
0 -0.384423 0.256863
0 -0.394183 0.263385
0 -0.402204 0.268744
0 -0.40841 0.272891
0 -0.412744 0.275787
0 -0.415166 0.277405
0 -0.000631966 0.000261769
0 -0.00332331 0.00137656
0 -0.00813886 0.00337123
0 -0.0150347 0.00622759
0 -0.0239467 0.00991904
0 -0.0347915 0.0144111
0 -0.0474681 0.0196619
0 -0.0618579 0.0256224
0 -0.0778266 0.0322368
0 -0.0952252 0.0394436
0 -0.113891 0.0471753
0 -0.13365 0.0553598
0 -0.154318 0.0639207
0 -0.175702 0.072778
0 -0.197601 0.0818491
0 -0.219812 0.0910492
0 -0.242127 0.100292
0 -0.264339 0.109493
0 -0.286238 0.118564
0 -0.307622 0.127421
0 -0.328289 0.135982
0 -0.348048 0.144166
0 -0.366715 0.151898
[...]
POINT_DATA 25600
FIELD FieldData 1
Velocity 3 25600 double
5.10902 -1.61038e-26 1.09213e-46
5.11051 -1.61014e-26 5.74288e-46
5.11825 -1.60889e-26 1.40608e-45
5.14063 -1.60527e-26 2.59547e-45
5.18913 -1.59741e-26 4.12723e-45
5.27759 -1.58298e-26 5.97839e-45
5.42105 -1.55938e-26 8.11657e-45
5.63432 -1.52377e-26 1.04983e-44
5.93017 -1.47327e-26 1.30678e-44
6.31738 -1.40511e-26 1.5757e-44
6.7986 -1.31675e-26 1.84857e-44
7.36851 -1.20602e-26 2.11634e-44
8.01233 -1.07129e-26 2.36923e-44
8.70508 -9.11539e-27 2.59711e-44
9.41179 -7.26473e-27 2.78999e-44
10.0888 -5.16596e-27 2.93855e-44
10.6862 -2.8324e-27 3.03474e-44
11.1516 -2.85867e-28 3.0723e-44
11.4342 2.44363e-27 3.04733e-44
11.49 5.31833e-27 2.95861e-44
11.2864 8.29356e-27 2.80796e-44
10.8068 1.13188e-26 2.60028e-44
10.0539 1.43391e-26 2.3435e-44
9.0513 1.72963e-26 2.04831e-44
7.84367 2.01311e-26 1.72772e-44
6.49468 2.27846e-26 1.39642e-44
5.08302 2.51997e-26 1.07006e-44
3.69684 2.73237e-26 7.64423e-45
2.42692 2.91089e-26 4.94551e-45
1.35937 3.0515e-26 2.73913e-45
0.568327 3.15096e-26 1.13627e-45
0.109501 3.20701e-26 2.17978e-46
5.10902 -1.57943e-26 -3.14169e-27
5.11051 -1.5792e-26 -3.14122e-27
5.11825 -1.57797e-26 -3.13878e-27
5.14063 -1.57442e-26 -3.13173e-27
5.18913 -1.56671e-26 -3.11638e-27
5.27759 -1.55257e-26 -3.08825e-27
5.42105 -1.52942e-26 -3.0422e-27
5.63432 -1.49449e-26 -2.97272e-27
5.93017 -1.44496e-26 -2.87421e-27
6.31738 -1.37811e-26 -2.74124e-27
6.7986 -1.29145e-26 -2.56885e-27
7.36851 -1.18285e-26 -2.35284e-27
8.01233 -1.05071e-26 -2.08999e-27
8.70508 -8.94024e-27 -1.77832e-27
9.41179 -7.12514e-27 -1.41728e-27
10.0888 -5.06669e-27 -1.00783e-27
10.6862 -2.77798e-27 -5.52575e-28
11.1516 -2.80374e-28 -5.57699e-29
11.4342 2.39668e-27 4.76728e-28
11.49 5.21614e-27 1.03755e-27
11.2864 8.13421e-27 1.61799e-27
10.8068 1.11013e-26 2.20819e-27
10.0539 1.40636e-26 2.79742e-27
9.0513 1.6964e-26 3.37434e-27
7.84367 1.97443e-26 3.92739e-27
6.49468 2.23468e-26 4.44505e-27
5.08302 2.47155e-26 4.91622e-27
3.69684 2.67986e-26 5.33058e-27
2.42692 2.85496e-26 5.67886e-27
1.35937 2.99286e-26 5.95317e-27
0.568327 3.09042e-26 6.14722e-27
0.109501 3.14539e-26 6.25656e-27
5.10902 -1.48779e-26 -6.16265e-27
5.11051 -1.48757e-26 -6.16173e-27
5.11825 -1.48642e-26 -6.15694e-27
5.14063 -1.48308e-26 -6.1431e-27
5.18913 -1.47581e-26 -6.11301e-27
5.27759 -1.46249e-26 -6.05782e-27
5.42105 -1.44068e-26 -5.96749e-27
5.63432 -1.40778e-26 -5.8312e-27
5.93017 -1.36112e-26 -5.63796e-27
6.31738 -1.29815e-26 -5.37713e-27
6.7986 -1.21652e-26 -5.03898e-27
7.36851 -1.11422e-26 -4.61525e-27
8.01233 -9.89745e-27 -4.09966e-27
8.70508 -8.42152e-27 -3.48831e-27
9.41179 -6.71174e-27 -2.78009e-27
10.0888 -4.77272e-27 -1.97693e-27
10.6862 -2.6168e-27 -1.08391e-27
11.1516 -2.64107e-28 -1.09397e-28
11.4342 2.25762e-27 9.35136e-28
11.49 4.9135e-27 2.03524e-27
11.2864 7.66225e-27 3.17381e-27
10.8068 1.04572e-26 4.33153e-27
10.0539 1.32476e-26 5.48733e-27
9.0513 1.59797e-26 6.61901e-27
7.84367 1.85987e-26 7.70385e-27
6.49468 2.10502e-26 8.71927e-27
5.08302 2.32815e-26 9.64351e-27
3.69684 2.52438e-26 1.04563e-26
2.42692 2.68931e-26 1.11395e-26
1.35937 2.81921e-26 1.16776e-26
0.568327 2.91111e-26 1.20582e-26
0.109501 2.96289e-26 1.22727e-26
5.10902 -1.33898e-26 -8.94678e-27
5.11051 -1.33878e-26 -8.94544e-27
5.11825 -1.33774e-26 -8.9385e-27
5.14063 -1.33473e-26 -8.9184e-27
5.18913 -1.32819e-26 -8.87471e-27
5.27759 -1.3162e-26 -8.79459e-27
5.42105 -1.29658e-26 -8.66345e-27
5.63432 -1.26697e-26 -8.46559e-27
5.93017 -1.22498e-26 -8.18506e-27
6.31738 -1.16831e-26 -7.80639e-27
6.7986 -1.09484e-26 -7.31547e-27
7.36851 -1.00277e-26 -6.70031e-27
8.01233 -8.90747e-27 -5.95178e-27
8.70508 -7.57917e-27 -5.06424e-27
9.41179 -6.0404e-27 -4.03607e-27
10.0888 -4.29534e-27 -2.87005e-27
10.6862 -2.35506e-27 -1.5736e-27
11.1516 -2.3769e-28 -1.58819e-28
11.4342 2.0318e-27 1.35761e-27
11.49 4.42203e-27 2.95471e-27
11.2864 6.89585e-27 4.60766e-27
10.8068 9.41126e-27 6.2884e-27
10.0539 1.19225e-26 7.96637e-27
9.0513 1.43814e-26 9.60932e-27
7.84367 1.67384e-26 1.11843e-26
6.49468 1.89447e-26 1.26584e-26
5.08302 2.09528e-26 1.40002e-26
3.69684 2.27188e-26 1.51802e-26
2.42692 2.42032e-26 1.6172e-26
1.35937 2.53723e-26 1.69532e-26
0.568327 2.61993e-26 1.75058e-26
0.109501 2.66653e-26 1.78172e-26
5.10902 -1.13871e-26 -1.13871e-26
5.11051 -1.13854e-26 -1.13854e-26
5.11825 -1.13766e-26 -1.13766e-26
5.14063 -1.1351e-26 -1.1351e-26
5.18913 -1.12954e-26 -1.12954e-26
5.27759 -1.11934e-26 -1.11934e-26
5.42105 -1.10265e-26 -1.10265e-26
5.63432 -1.07747e-26 -1.07747e-26
5.93017 -1.04176e-26 -1.04176e-26
6.31738 -9.93564e-27 -9.93564e-27
6.7986 -9.31082e-27 -9.31082e-27
7.36851 -8.52788e-27 -8.52788e-27
8.01233 -7.57518e-27 -7.57518e-27
8.70508 -6.44555e-27 -6.44555e-27
9.41179 -5.13694e-27 -5.13694e-27
10.0888 -3.65288e-27 -3.65288e-27
10.6862 -2.00281e-27 -2.00281e-27
11.1516 -2.02139e-28 -2.02139e-28
11.4342 1.72791e-27 1.72791e-27
11.49 3.76063e-27 3.76063e-27
11.2864 5.86444e-27 5.86444e-27
10.8068 8.00362e-27 8.00362e-27
10.0539 1.01393e-26 1.01393e-26
9.0513 1.22303e-26 1.22303e-26
7.84367 1.42349e-26 1.42349e-26
6.49468 1.61111e-26 1.61111e-26
5.08302 1.78189e-26 1.78189e-26
3.69684 1.93207e-26 1.93207e-26
2.42692 2.05831e-26 2.05831e-26
1.35937 2.15773e-26 2.15773e-26
0.568327 2.22807e-26 2.22807e-26
0.109501 2.2677e-26 2.2677e-26
5.10902 -8.94678e-27 -1.33898e-26
5.11051 -8.94544e-27 -1.33878e-26
5.11825 -8.9385e-27 -1.33774e-26
5.14063 -8.9184e-27 -1.33473e-26
5.18913 -8.87471e-27 -1.32819e-26
5.27759 -8.79459e-27 -1.3162e-26
5.42105 -8.66345e-27 -1.29658e-26
5.63432 -8.46559e-27 -1.26697e-26
5.93017 -8.18506e-27 -1.22498e-26
6.31738 -7.80639e-27 -1.16831e-26
6.7986 -7.31547e-27 -1.09484e-26
7.36851 -6.70031e-27 -1.00277e-26
8.01233 -5.95178e-27 -8.90747e-27
8.70508 -5.06424e-27 -7.57917e-27
9.41179 -4.03607e-27 -6.0404e-27
10.0888 -2.87005e-27 -4.29534e-27
10.6862 -1.5736e-27 -2.35506e-27
11.1516 -1.58819e-28 -2.3769e-28
11.4342 1.35761e-27 2.0318e-27
11.49 2.95471e-27 4.42203e-27
11.2864 4.60766e-27 6.89585e-27
10.8068 6.2884e-27 9.41126e-27
10.0539 7.96637e-27 1.19225e-26
9.0513 9.60932e-27 1.43814e-26
7.84367 1.11843e-26 1.67384e-26
6.49468 1.26584e-26 1.89447e-26
5.08302 1.40002e-26 2.09528e-26
3.69684 1.51802e-26 2.27188e-26
2.42692 1.6172e-26 2.42032e-26
1.35937 1.69532e-26 2.53723e-26
0.568327 1.75058e-26 2.61993e-26
0.109501 1.78172e-26 2.66653e-26
5.10902 -6.16265e-27 -1.48779e-26
5.11051 -6.16173e-27 -1.48757e-26
5.11825 -6.15694e-27 -1.48642e-26
5.14063 -6.1431e-27 -1.48308e-26
5.18913 -6.11301e-27 -1.47581e-26
5.27759 -6.05782e-27 -1.46249e-26
5.42105 -5.96749e-27 -1.44068e-26
5.63432 -5.8312e-27 -1.40778e-26
5.93017 -5.63796e-27 -1.36112e-26
6.31738 -5.37713e-27 -1.29815e-26
6.7986 -5.03898e-27 -1.21652e-26
7.36851 -4.61525e-27 -1.11422e-26
8.01233 -4.09966e-27 -9.89745e-27
8.70508 -3.48831e-27 -8.42152e-27
9.41179 -2.78009e-27 -6.71174e-27
10.0888 -1.97693e-27 -4.77272e-27
10.6862 -1.08391e-27 -2.6168e-27
11.1516 -1.09397e-28 -2.64107e-28
11.4342 9.35136e-28 2.25762e-27
11.49 2.03524e-27 4.9135e-27
11.2864 3.17381e-27 7.66225e-27
10.8068 4.33153e-27 1.04572e-26
10.0539 5.48733e-27 1.32476e-26
9.0513 6.61901e-27 1.59797e-26
7.84367 7.70385e-27 1.85987e-26
6.49468 8.71927e-27 2.10502e-26
5.08302 9.64351e-27 2.32815e-26
3.69684 1.04563e-26 2.52438e-26
2.42692 1.11395e-26 2.68931e-26
1.35937 1.16776e-26 2.81921e-26
0.568327 1.20582e-26 2.91111e-26
0.109501 1.22727e-26 2.96289e-26
5.10902 -3.14169e-27 -1.57943e-26
5.11051 -3.14122e-27 -1.5792e-26
5.11825 -3.13878e-27 -1.57797e-26
5.14063 -3.13173e-27 -1.57442e-26
5.18913 -3.11638e-27 -1.56671e-26
5.27759 -3.08825e-27 -1.55257e-26
5.42105 -3.0422e-27 -1.52942e-26
5.63432 -2.97272e-27 -1.49449e-26
5.93017 -2.87421e-27 -1.44496e-26
6.31738 -2.74124e-27 -1.37811e-26
6.7986 -2.56885e-27 -1.29145e-26
7.36851 -2.35284e-27 -1.18285e-26
8.01233 -2.08999e-27 -1.05071e-26
8.70508 -1.77832e-27 -8.94024e-27
9.41179 -1.41728e-27 -7.12514e-27
10.0888 -1.00783e-27 -5.06669e-27
10.6862 -5.52575e-28 -2.77798e-27
11.1516 -5.57699e-29 -2.80374e-28
11.4342 4.76728e-28 2.39668e-27
11.49 1.03755e-27 5.21614e-27
11.2864 1.61799e-27 8.13421e-27
10.8068 2.20819e-27 1.11013e-26
10.0539 2.79742e-27 1.40636e-26
9.0513 3.37434e-27 1.6964e-26
7.84367 3.92739e-27 1.97443e-26
6.49468 4.44505e-27 2.23468e-26
5.08302 4.91622e-27 2.47155e-26
3.69684 5.33058e-27 2.67986e-26
2.42692 5.67886e-27 2.85496e-26
1.35937 5.95317e-27 2.99286e-26
0.568327 6.14722e-27 3.09042e-26
0.109501 6.25656e-27 3.14539e-26
5.10902 -9.84472e-43 -1.61038e-26
5.11051 -9.77513e-43 -1.61014e-26
5.11825 -9.64564e-43 -1.60889e-26
5.14063 -9.44928e-43 -1.60527e-26
5.18913 -9.17677e-43 -1.59741e-26
5.27759 -8.81732e-43 -1.58298e-26
5.42105 -8.3596e-43 -1.55938e-26
5.63432 -7.79268e-43 -1.52377e-26
5.93017 -7.10712e-43 -1.47327e-26
6.31738 -6.29588e-43 -1.40511e-26
6.7986 -5.35514e-43 -1.31675e-26
7.36851 -4.28494e-43 -1.20602e-26
8.01233 -3.08953e-43 -1.07129e-26
8.70508 -1.77754e-43 -9.11539e-27
9.41179 -3.61831e-44 -7.26473e-27
10.0888 1.1409e-43 -5.16596e-27
10.6862 2.71067e-43 -2.8324e-27
11.1516 4.325e-43 -2.85867e-28
11.4342 5.95975e-43 2.44363e-27
11.49 7.59005e-43 5.31833e-27
11.2864 9.1912e-43 8.29356e-27
10.8068 1.07394e-42 1.13188e-26
10.0539 1.22127e-42 1.43391e-26
9.0513 1.35911e-42 1.72963e-26
7.84367 1.48574e-42 2.01311e-26
6.49468 1.59969e-42 2.27846e-26
5.08302 1.69977e-42 2.51997e-26
3.69684 1.78506e-42 2.73237e-26
2.42692 1.85484e-42 2.91089e-26
1.35937 1.90862e-42 3.0515e-26
0.568327 1.94605e-42 3.15096e-26
0.109501 1.96692e-42 3.20701e-26
5.10902 3.14169e-27 -1.57943e-26
5.11051 3.14122e-27 -1.5792e-26
5.11825 3.13878e-27 -1.57797e-26
5.14063 3.13173e-27 -1.57442e-26
5.18913 3.11638e-27 -1.56671e-26
5.27759 3.08825e-27 -1.55257e-26
5.42105 3.0422e-27 -1.52942e-26
5.63432 2.97272e-27 -1.49449e-26
5.93017 2.87421e-27 -1.44496e-26
6.31738 2.74124e-27 -1.37811e-26
6.7986 2.56885e-27 -1.29145e-26
7.36851 2.35284e-27 -1.18285e-26
8.01233 2.08999e-27 -1.05071e-26
8.70508 1.77832e-27 -8.94024e-27
9.41179 1.41728e-27 -7.12514e-27
10.0888 1.00783e-27 -5.06669e-27
10.6862 5.52575e-28 -2.77798e-27
11.1516 5.57699e-29 -2.80374e-28
11.4342 -4.76728e-28 2.39668e-27
11.49 -1.03755e-27 5.21614e-27
11.2864 -1.61799e-27 8.13421e-27
10.8068 -2.20819e-27 1.11013e-26
10.0539 -2.79742e-27 1.40636e-26
9.0513 -3.37434e-27 1.6964e-26
7.84367 -3.92739e-27 1.97443e-26
6.49468 -4.44505e-27 2.23468e-26
5.08302 -4.91622e-27 2.47155e-26
3.69684 -5.33058e-27 2.67986e-26
2.42692 -5.67886e-27 2.85496e-26
1.35937 -5.95317e-27 2.99286e-26
0.568327 -6.14722e-27 3.09042e-26
0.109501 -6.25656e-27 3.14539e-26
5.10902 6.16265e-27 -1.48779e-26
5.11051 6.16173e-27 -1.48757e-26
5.11825 6.15694e-27 -1.48642e-26
5.14063 6.1431e-27 -1.48308e-26
5.18913 6.11301e-27 -1.47581e-26
5.27759 6.05782e-27 -1.46249e-26
5.42105 5.96749e-27 -1.44068e-26
5.63432 5.8312e-27 -1.40778e-26
5.93017 5.63796e-27 -1.36112e-26
6.31738 5.37713e-27 -1.29815e-26
6.7986 5.03898e-27 -1.21652e-26
7.36851 4.61525e-27 -1.11422e-26
8.01233 4.09966e-27 -9.89745e-27
8.70508 3.48831e-27 -8.42152e-27
9.41179 2.78009e-27 -6.71174e-27
10.0888 1.97693e-27 -4.77272e-27
10.6862 1.08391e-27 -2.6168e-27
11.1516 1.09397e-28 -2.64107e-28
11.4342 -9.35136e-28 2.25762e-27
11.49 -2.03524e-27 4.9135e-27
11.2864 -3.17381e-27 7.66225e-27
10.8068 -4.33153e-27 1.04572e-26
10.0539 -5.48733e-27 1.32476e-26
9.0513 -6.61901e-27 1.59797e-26
7.84367 -7.70385e-27 1.85987e-26
6.49468 -8.71927e-27 2.10502e-26
5.08302 -9.64351e-27 2.32815e-26
3.69684 -1.04563e-26 2.52438e-26
2.42692 -1.11395e-26 2.68931e-26
1.35937 -1.16776e-26 2.81921e-26
0.568327 -1.20582e-26 2.91111e-26
0.109501 -1.22727e-26 2.96289e-26
5.10902 8.94678e-27 -1.33898e-26
5.11051 8.94544e-27 -1.33878e-26
5.11825 8.9385e-27 -1.33774e-26
5.14063 8.9184e-27 -1.33473e-26
5.18913 8.87471e-27 -1.32819e-26
5.27759 8.79459e-27 -1.3162e-26
5.42105 8.66345e-27 -1.29658e-26
5.63432 8.46559e-27 -1.26697e-26
5.93017 8.18506e-27 -1.22498e-26
6.31738 7.80639e-27 -1.16831e-26
6.7986 7.31547e-27 -1.09484e-26
7.36851 6.70031e-27 -1.00277e-26
8.01233 5.95178e-27 -8.90747e-27
8.70508 5.06424e-27 -7.57917e-27
9.41179 4.03607e-27 -6.0404e-27
10.0888 2.87005e-27 -4.29534e-27
10.6862 1.5736e-27 -2.35506e-27
11.1516 1.58819e-28 -2.3769e-28
11.4342 -1.35761e-27 2.0318e-27
11.49 -2.95471e-27 4.42203e-27
11.2864 -4.60766e-27 6.89585e-27
10.8068 -6.2884e-27 9.41126e-27
10.0539 -7.96637e-27 1.19225e-26
9.0513 -9.60932e-27 1.43814e-26
7.84367 -1.11843e-26 1.67384e-26
6.49468 -1.26584e-26 1.89447e-26
5.08302 -1.40002e-26 2.09528e-26
3.69684 -1.51802e-26 2.27188e-26
2.42692 -1.6172e-26 2.42032e-26
1.35937 -1.69532e-26 2.53723e-26
0.568327 -1.75058e-26 2.61993e-26
0.109501 -1.78172e-26 2.66653e-26
5.10902 1.13871e-26 -1.13871e-26
5.11051 1.13854e-26 -1.13854e-26
5.11825 1.13766e-26 -1.13766e-26
5.14063 1.1351e-26 -1.1351e-26
5.18913 1.12954e-26 -1.12954e-26
5.27759 1.11934e-26 -1.11934e-26
5.42105 1.10265e-26 -1.10265e-26
5.63432 1.07747e-26 -1.07747e-26
5.93017 1.04176e-26 -1.04176e-26
6.31738 9.93564e-27 -9.93564e-27
6.7986 9.31082e-27 -9.31082e-27
7.36851 8.52788e-27 -8.52788e-27
8.01233 7.57518e-27 -7.57518e-27
8.70508 6.44555e-27 -6.44555e-27
9.41179 5.13694e-27 -5.13694e-27
10.0888 3.65288e-27 -3.65288e-27
10.6862 2.00281e-27 -2.00281e-27
11.1516 2.02139e-28 -2.02139e-28
11.4342 -1.72791e-27 1.72791e-27
11.49 -3.76063e-27 3.76063e-27
11.2864 -5.86444e-27 5.86444e-27
10.8068 -8.00362e-27 8.00362e-27
10.0539 -1.01393e-26 1.01393e-26
9.0513 -1.22303e-26 1.22303e-26
7.84367 -1.42349e-26 1.42349e-26
6.49468 -1.61111e-26 1.61111e-26
5.08302 -1.78189e-26 1.78189e-26
3.69684 -1.93207e-26 1.93207e-26
2.42692 -2.05831e-26 2.05831e-26
1.35937 -2.15773e-26 2.15773e-26
0.568327 -2.22807e-26 2.22807e-26
0.109501 -2.2677e-26 2.2677e-26
5.10902 1.33898e-26 -8.94678e-27
5.11051 1.33878e-26 -8.94544e-27
5.11825 1.33774e-26 -8.9385e-27
5.14063 1.33473e-26 -8.9184e-27
5.18913 1.32819e-26 -8.87471e-27
5.27759 1.3162e-26 -8.79459e-27
5.42105 1.29658e-26 -8.66345e-27
5.63432 1.26697e-26 -8.46559e-27
5.93017 1.22498e-26 -8.18506e-27
6.31738 1.16831e-26 -7.80639e-27
6.7986 1.09484e-26 -7.31547e-27
7.36851 1.00277e-26 -6.70031e-27
8.01233 8.90747e-27 -5.95178e-27
8.70508 7.57917e-27 -5.06424e-27
9.41179 6.0404e-27 -4.03607e-27
10.0888 4.29534e-27 -2.87005e-27
10.6862 2.35506e-27 -1.5736e-27
11.1516 2.3769e-28 -1.58819e-28
11.4342 -2.0318e-27 1.35761e-27
11.49 -4.42203e-27 2.95471e-27
11.2864 -6.89585e-27 4.60766e-27
10.8068 -9.41126e-27 6.2884e-27
10.0539 -1.19225e-26 7.96637e-27
9.0513 -1.43814e-26 9.60932e-27
7.84367 -1.67384e-26 1.11843e-26
6.49468 -1.89447e-26 1.26584e-26
5.08302 -2.09528e-26 1.40002e-26
3.69684 -2.27188e-26 1.51802e-26
2.42692 -2.42032e-26 1.6172e-26
1.35937 -2.53723e-26 1.69532e-26
0.568327 -2.61993e-26 1.75058e-26
0.109501 -2.66653e-26 1.78172e-26
5.10902 1.48779e-26 -6.16265e-27
5.11051 1.48757e-26 -6.16173e-27
5.11825 1.48642e-26 -6.15694e-27
5.14063 1.48308e-26 -6.1431e-27
5.18913 1.47581e-26 -6.11301e-27
5.27759 1.46249e-26 -6.05782e-27
5.42105 1.44068e-26 -5.96749e-27
5.63432 1.40778e-26 -5.8312e-27
5.93017 1.36112e-26 -5.63796e-27
6.31738 1.29815e-26 -5.37713e-27
6.7986 1.21652e-26 -5.03898e-27
7.36851 1.11422e-26 -4.61525e-27
8.01233 9.89745e-27 -4.09966e-27
8.70508 8.42152e-27 -3.48831e-27
9.41179 6.71174e-27 -2.78009e-27
10.0888 4.77272e-27 -1.97693e-27
10.6862 2.6168e-27 -1.08391e-27
11.1516 2.64107e-28 -1.09397e-28
11.4342 -2.25762e-27 9.35136e-28
11.49 -4.9135e-27 2.03524e-27
11.2864 -7.66225e-27 3.17381e-27
10.8068 -1.04572e-26 4.33153e-27
10.0539 -1.32476e-26 5.48733e-27
9.0513 -1.59797e-26 6.61901e-27
7.84367 -1.85987e-26 7.70385e-27
6.49468 -2.10502e-26 8.71927e-27
5.08302 -2.32815e-26 9.64351e-27
3.69684 -2.52438e-26 1.04563e-26
2.42692 -2.68931e-26 1.11395e-26
1.35937 -2.81921e-26 1.16776e-26
0.568327 -2.91111e-26 1.20582e-26
0.109501 -2.96289e-26 1.22727e-26
5.10902 1.57943e-26 -3.14169e-27
5.11051 1.5792e-26 -3.14122e-27
5.11825 1.57797e-26 -3.13878e-27
5.14063 1.57442e-26 -3.13173e-27
5.18913 1.56671e-26 -3.11638e-27
5.27759 1.55257e-26 -3.08825e-27
5.42105 1.52942e-26 -3.0422e-27
5.63432 1.49449e-26 -2.97272e-27
5.93017 1.44496e-26 -2.87421e-27
6.31738 1.37811e-26 -2.74124e-27
6.7986 1.29145e-26 -2.56885e-27
7.36851 1.18285e-26 -2.35284e-27
8.01233 1.05071e-26 -2.08999e-27
8.70508 8.94024e-27 -1.77832e-27
9.41179 7.12514e-27 -1.41728e-27
10.0888 5.06669e-27 -1.00783e-27
10.6862 2.77798e-27 -5.52575e-28
11.1516 2.80374e-28 -5.57699e-29
11.4342 -2.39668e-27 4.76728e-28
11.49 -5.21614e-27 1.03755e-27
11.2864 -8.13421e-27 1.61799e-27
10.8068 -1.11013e-26 2.20819e-27
10.0539 -1.40636e-26 2.79742e-27
9.0513 -1.6964e-26 3.37434e-27
7.84367 -1.97443e-26 3.92739e-27
6.49468 -2.23468e-26 4.44505e-27
5.08302 -2.47155e-26 4.91622e-27
3.69684 -2.67986e-26 5.33058e-27
2.42692 -2.85496e-26 5.67886e-27
1.35937 -2.99286e-26 5.95317e-27
0.568327 -3.09042e-26 6.14722e-27
0.109501 -3.14539e-26 6.25656e-27
5.10902 1.61038e-26 -1.97203e-42
5.11051 1.61014e-26 -1.97127e-42
5.11825 1.60889e-26 -1.96891e-42
5.14063 1.60527e-26 -1.96329e-42
5.18913 1.59741e-26 -1.95213e-42
5.27759 1.58298e-26 -1.93262e-42
5.42105 1.55938e-26 -1.90157e-42
5.63432 1.52377e-26 -1.85558e-42
5.93017 1.47327e-26 -1.79117e-42
6.31738 1.40511e-26 -1.70501e-42
6.7986 1.31675e-26 -1.59407e-42
7.36851 1.20602e-26 -1.45579e-42
8.01233 1.07129e-26 -1.28826e-42
8.70508 9.11539e-27 -1.09034e-42
9.41179 7.26473e-27 -8.61773e-43
10.0888 5.16596e-27 -6.03262e-43
10.6862 2.8324e-27 -3.16522e-43
11.1516 2.85867e-28 -4.28561e-45
11.4342 -2.44363e-27 3.29732e-43
11.49 -5.31833e-27 6.80894e-43
11.2864 -8.29356e-27 1.04375e-42
10.8068 -1.13188e-26 1.41216e-42
10.0539 -1.43391e-26 1.77947e-42
9.0513 -1.72963e-26 2.13867e-42
7.84367 -2.01311e-26 2.48263e-42
6.49468 -2.27846e-26 2.80427e-42
5.08302 -2.51997e-26 3.09678e-42
3.69684 -2.73237e-26 3.35383e-42
2.42692 -2.91089e-26 3.56976e-42
1.35937 -3.0515e-26 3.73974e-42
0.568327 -3.15096e-26 3.85995e-42
0.109501 -3.20701e-26 3.92767e-42
5.10902 1.57943e-26 3.14169e-27
5.11051 1.5792e-26 3.14122e-27
5.11825 1.57797e-26 3.13878e-27
5.14063 1.57442e-26 3.13173e-27
5.18913 1.56671e-26 3.11638e-27
5.27759 1.55257e-26 3.08825e-27
5.42105 1.52942e-26 3.0422e-27
5.63432 1.49449e-26 2.97272e-27
5.93017 1.44496e-26 2.87421e-27
6.31738 1.37811e-26 2.74124e-27
6.7986 1.29145e-26 2.56885e-27
7.36851 1.18285e-26 2.35284e-27
8.01233 1.05071e-26 2.08999e-27
8.70508 8.94024e-27 1.77832e-27
9.41179 7.12514e-27 1.41728e-27
10.0888 5.06669e-27 1.00783e-27
10.6862 2.77798e-27 5.52575e-28
11.1516 2.80374e-28 5.57699e-29
11.4342 -2.39668e-27 -4.76728e-28
11.49 -5.21614e-27 -1.03755e-27
11.2864 -8.13421e-27 -1.61799e-27
10.8068 -1.11013e-26 -2.20819e-27
10.0539 -1.40636e-26 -2.79742e-27
9.0513 -1.6964e-26 -3.37434e-27
7.84367 -1.97443e-26 -3.92739e-27
6.49468 -2.23468e-26 -4.44505e-27
5.08302 -2.47155e-26 -4.91622e-27
3.69684 -2.67986e-26 -5.33058e-27
2.42692 -2.85496e-26 -5.67886e-27
1.35937 -2.99286e-26 -5.95317e-27
0.568327 -3.09042e-26 -6.14722e-27
0.109501 -3.14539e-26 -6.25656e-27
5.10902 1.48779e-26 6.16265e-27
5.11051 1.48757e-26 6.16173e-27
5.11825 1.48642e-26 6.15694e-27
5.14063 1.48308e-26 6.1431e-27
5.18913 1.47581e-26 6.11301e-27
5.27759 1.46249e-26 6.05782e-27
5.42105 1.44068e-26 5.96749e-27
5.63432 1.40778e-26 5.8312e-27
5.93017 1.36112e-26 5.63796e-27
6.31738 1.29815e-26 5.37713e-27
6.7986 1.21652e-26 5.03898e-27
7.36851 1.11422e-26 4.61525e-27
8.01233 9.89745e-27 4.09966e-27
8.70508 8.42152e-27 3.48831e-27
9.41179 6.71174e-27 2.78009e-27
10.0888 4.77272e-27 1.97693e-27
10.6862 2.6168e-27 1.08391e-27
11.1516 2.64107e-28 1.09397e-28
11.4342 -2.25762e-27 -9.35136e-28
11.49 -4.9135e-27 -2.03524e-27
11.2864 -7.66225e-27 -3.17381e-27
10.8068 -1.04572e-26 -4.33153e-27
10.0539 -1.32476e-26 -5.48733e-27
9.0513 -1.59797e-26 -6.61901e-27
7.84367 -1.85987e-26 -7.70385e-27
6.49468 -2.10502e-26 -8.71927e-27
5.08302 -2.32815e-26 -9.64351e-27
3.69684 -2.52438e-26 -1.04563e-26
2.42692 -2.68931e-26 -1.11395e-26
1.35937 -2.81921e-26 -1.16776e-26
0.568327 -2.91111e-26 -1.20582e-26
0.109501 -2.96289e-26 -1.22727e-26