# vtk DataFile Version 3.0
LifeV output
ASCII
DATASET UNSTRUCTURED_GRID
POINTS 25600 float
0 0.000684035 0
0 0.00359712 0
0 0.00880944 0
0 0.0162735 0
0 0.0259197 0
0 0.0376581 0
0 0.0513791 0
0 0.0669545 0
0 0.0842389 0
0 0.103071 0
0 0.123275 0
0 0.144662 0
0 0.167033 0
0 0.190178 0
0 0.213882 0
0 0.237923 0
0 0.262077 0
0 0.286118 0
0 0.309822 0
0 0.332967 0
0 0.355338 0
0 0.376725 0
0 0.396929 0
0 0.415761 0
0 0.433046 0
0 0.448621 0
0 0.462342 0
0 0.47408 0
0 0.483727 0
0 0.491191 0
0 0.496403 0
0 0.499316 0
0 0.000670891 0.000133449
0 0.003528 0.000701764
0 0.00864017 0.00171864
0 0.0159608 0.0031748
0 0.0254217 0.00505668
0 0.0369345 0.00734673
0 0.0503918 0.0100236
0 0.065668 0.0130622
0 0.0826203 0.0164342
0 0.101091 0.0201082
0 0.120906 0.0240498
0 0.141883 0.0282222
0 0.163823 0.0325865
0 0.186524 0.0371019
0 0.209772 0.0417263
0 0.233351 0.0464165
0 0.257041 0.0511287
0 0.28062 0.0558189
0 0.303869 0.0604432
0 0.326569 0.0649587
0 0.34851 0.069323
0 0.369486 0.0734954
0 0.389302 0.077437
0 0.407772 0.081111
0 0.424725 0.084483
0 0.440001 0.0875216
0 0.453458 0.0901984
0 0.464971 0.0924885
0 0.474432 0.0943704
0 0.481752 0.0958265
0 0.486865 0.0968434
0 0.489722 0.0974117
0 0.000631966 0.000261769
0 0.00332331 0.00137656
0 0.00813886 0.00337123
0 0.0150347 0.00622759
0 0.0239467 0.00991904
0 0.0347915 0.0144111
0 0.0474681 0.0196619
0 0.0618579 0.0256224
0 0.0778266 0.0322368
0 0.0952252 0.0394436
0 0.113891 0.0471753
0 0.13365 0.0553598
0 0.154318 0.0639207
0 0.175702 0.072778
0 0.197601 0.0818491
0 0.219812 0.0910492
0 0.242127 0.100292
0 0.264339 0.109493
0 0.286238 0.118564
0 0.307622 0.127421
0 0.328289 0.135982
0 0.348048 0.144166
0 0.366715 0.151898
0 0.384113 0.159105
0 0.400082 0.165719
0 0.414472 0.17168
0 0.427148 0.176931
0 0.437993 0.181423
0 0.446905 0.185114
0 0.453801 0.18797
0 0.458616 0.189965
0 0.461308 0.19108
0 0.000568754 0.000380029
0 0.0029909 0.00199845
0 0.00732478 0.00489426
0 0.0135309 0.00904106
0 0.0215515 0.0144002
0 0.0313116 0.0209217
0 0.0427201 0.0285447
0 0.0556706 0.0371979
0 0.0700421 0.0468006
0 0.0857005 0.0572632
0 0.102499 0.0684879
0 0.120282 0.08037
0 0.138883 0.0927985
0 0.158127 0.105657
0 0.177836 0.118826
0 0.197826 0.132183
0 0.217909 0.145602
0 0.237898 0.158959
0 0.257607 0.172128
0 0.276852 0.184987
0 0.295453 0.197415
0 0.313235 0.209297
0 0.330034 0.220522
0 0.345693 0.230984
0 0.360064 0.240587
0 0.373015 0.24924
0 0.384423 0.256863
0 0.394183 0.263385
0 0.402204 0.268744
0 0.40841 0.272891
0 0.412744 0.275787
0 0.415166 0.277405
0 0.000483685 0.000483685
0 0.00254355 0.00254355
0 0.00622921 0.00622921
0 0.0115071 0.0115071
0 0.018328 0.018328
0 0.0266283 0.0266283
0 0.0363305 0.0363305
0 0.047344 0.047344
0 0.0595659 0.0595659
0 0.0728822 0.0728822
0 0.0871686 0.0871686
0 0.102292 0.102292
0 0.11811 0.11811
0 0.134476 0.134476
0 0.151237 0.151237
0 0.168237 0.168237
0 0.185316 0.185316
0 0.202316 0.202316
0 0.219077 0.219077
0 0.235443 0.235443
0 0.251262 0.251262
0 0.266385 0.266385
0 0.280671 0.280671
0 0.293987 0.293987
0 0.306209 0.306209
0 0.317223 0.317223
0 0.326925 0.326925
0 0.335225 0.335225
0 0.342046 0.342046
0 0.347324 0.347324
0 0.35101 0.35101
0 0.35307 0.35307
0 0.000380029 0.000568754
0 0.00199845 0.0029909
0 0.00489426 0.00732478
0 0.00904106 0.0135309
0 0.0144002 0.0215515
0 0.0209217 0.0313116
0 0.0285447 0.0427201
0 0.0371979 0.0556706
0 0.0468006 0.0700421
0 0.0572632 0.0857005
0 0.0684879 0.102499
0 0.08037 0.120282
0 0.0927985 0.138883
0 0.105657 0.158127
0 0.118826 0.177836
0 0.132183 0.197826
0 0.145602 0.217909
0 0.158959 0.237898
0 0.172128 0.257607
0 0.184987 0.276852
0 0.197415 0.295453
0 0.209297 0.313235
0 0.220522 0.330034
0 0.230984 0.345693
0 0.240587 0.360064
0 0.24924 0.373015
0 0.256863 0.384423
0 0.263385 0.394183
0 0.268744 0.402204
0 0.272891 0.40841
0 0.275787 0.412744
0 0.277405 0.415166
0 0.000261769 0.000631966
0 0.00137656 0.00332331
0 0.00337123 0.00813886
0 0.00622759 0.0150347
0 0.00991904 0.0239467
0 0.0144111 0.0347915
0 0.0196619 0.0474681
0 0.0256224 0.0618579
0 0.0322368 0.0778266
0 0.0394436 0.0952252
0 0.0471753 0.113891
0 0.0553598 0.13365
0 0.0639207 0.154318
0 0.072778 0.175702
0 0.0818491 0.197601
0 0.0910492 0.219812
0 0.100292 0.242127
0 0.109493 0.264339
0 0.118564 0.286238
0 0.127421 0.307622
0 0.135982 0.328289
0 0.144166 0.348048
0 0.151898 0.366715
0 0.159105 0.384113
0 0.165719 0.400082
0 0.17168 0.414472
0 0.176931 0.427148
0 0.181423 0.437993
0 0.185114 0.446905
0 0.18797 0.453801
0 0.189965 0.458616
0 0.19108 0.461308
0 0.000133449 0.000670891
0 0.000701764 0.003528
0 0.00171864 0.00864017
0 0.0031748 0.0159608
0 0.00505668 0.0254217
0 0.00734673 0.0369345
0 0.0100236 0.0503918
0 0.0130622 0.065668
0 0.0164342 0.0826203
0 0.0201082 0.101091
0 0.0240498 0.120906
0 0.0282222 0.141883
0 0.0325865 0.163823
0 0.0371019 0.186524
0 0.0417263 0.209772
0 0.0464165 0.233351
0 0.0511287 0.257041
0 0.0558189 0.28062
0 0.0604432 0.303869
0 0.0649587 0.326569
0 0.069323 0.34851
0 0.0734954 0.369486
0 0.077437 0.389302
0 0.081111 0.407772
0 0.084483 0.424725
0 0.0875216 0.440001
0 0.0901984 0.453458
0 0.0924885 0.464971
0 0.0943704 0.474432
0 0.0958265 0.481752
0 0.0968434 0.486865
0 0.0974117 0.489722
0 4.1885e-20 0.000684035
0 2.2026e-19 0.00359712
0 5.39422e-19 0.00880944
0 9.96463e-19 0.0162735
0 1.58712e-18 0.0259197
0 2.30589e-18 0.0376581
0 3.14606e-18 0.0513791
0 4.09978e-18 0.0669545
0 5.15815e-18 0.0842389
0 6.31128e-18 0.103071
0 7.54842e-18 0.123275
0 8.858e-18 0.144662
0 1.02278e-17 0.167033
0 1.16451e-17 0.190178
0 1.30965e-17 0.213882
0 1.45686e-17 0.237923
0 1.60476e-17 0.262077
0 1.75197e-17 0.286118
0 1.89711e-17 0.309822
0 2.03884e-17 0.332967
0 2.17582e-17 0.355338
0 2.30678e-17 0.376725
0 2.43049e-17 0.396929
0 2.5458e-17 0.415761
0 2.65164e-17 0.433046
0 2.74701e-17 0.448621
0 2.83103e-17 0.462342
0 2.9029e-17 0.47408
0 2.96197e-17 0.483727
0 3.00767e-17 0.491191
0 3.03959e-17 0.496403
0 3.05743e-17 0.499316
0 -0.000133449 0.000670891
0 -0.000701764 0.003528
0 -0.00171864 0.00864017
0 -0.0031748 0.0159608
0 -0.00505668 0.0254217
0 -0.00734673 0.0369345
0 -0.0100236 0.0503918
0 -0.0130622 0.065668
0 -0.0164342 0.0826203
0 -0.0201082 0.101091
0 -0.0240498 0.120906
0 -0.0282222 0.141883
0 -0.0325865 0.163823
0 -0.0371019 0.186524
0 -0.0417263 0.209772
0 -0.0464165 0.233351
0 -0.0511287 0.257041
0 -0.0558189 0.28062
0 -0.0604432 0.303869
0 -0.0649587 0.326569
0 -0.069323 0.34851
0 -0.0734954 0.369486
0 -0.077437 0.389302
0 -0.081111 0.407772
0 -0.084483 0.424725
0 -0.0875216 0.440001
0 -0.0901984 0.453458
0 -0.0924885 0.464971
0 -0.0943704 0.474432
0 -0.0958265 0.481752
0 -0.0968434 0.486865
0 -0.0974117 0.489722
0 -0.000261769 0.000631966
0 -0.00137656 0.00332331
0 -0.00337123 0.00813886
0 -0.00622759 0.0150347
0 -0.00991904 0.0239467
0 -0.0144111 0.0347915
0 -0.0196619 0.0474681
0 -0.0256224 0.0618579
0 -0.0322368 0.0778266
0 -0.0394436 0.0952252
0 -0.0471753 0.113891
0 -0.0553598 0.13365
0 -0.0639207 0.154318
0 -0.072778 0.175702
0 -0.0818491 0.197601
0 -0.0910492 0.219812
0 -0.100292 0.242127
0 -0.109493 0.264339
0 -0.118564 0.286238
0 -0.127421 0.307622
0 -0.135982 0.328289
0 -0.144166 0.348048
0 -0.151898 0.366715
0 -0.159105 0.384113
0 -0.165719 0.400082
0 -0.17168 0.414472
0 -0.176931 0.427148
0 -0.181423 0.437993
0 -0.185114 0.446905
0 -0.18797 0.453801
0 -0.189965 0.458616
0 -0.19108 0.461308
0 -0.000380029 0.000568754
0 -0.00199845 0.0029909
0 -0.00489426 0.00732478
0 -0.00904106 0.0135309
0 -0.0144002 0.0215515
0 -0.0209217 0.0313116
0 -0.0285447 0.0427201
0 -0.0371979 0.0556706
0 -0.0468006 0.0700421
0 -0.0572632 0.0857005
0 -0.0684879 0.102499
0 -0.08037 0.120282
0 -0.0927985 0.138883
0 -0.105657 0.158127
0 -0.118826 0.177836
0 -0.132183 0.197826
0 -0.145602 0.217909
0 -0.158959 0.237898
0 -0.172128 0.257607
0 -0.184987 0.276852
0 -0.197415 0.295453
0 -0.209297 0.313235
0 -0.220522 0.330034
0 -0.230984 0.345693
0 -0.240587 0.360064
0 -0.24924 0.373015
0 -0.256863 0.384423
0 -0.263385 0.394183
0 -0.268744 0.402204
0 -0.272891 0.40841
0 -0.275787 0.412744
0 -0.277405 0.415166
0 -0.000483685 0.000483685
0 -0.00254355 0.00254355
0 -0.00622921 0.00622921
0 -0.0115071 0.0115071
0 -0.018328 0.018328
0 -0.0266283 0.0266283
0 -0.0363305 0.0363305
0 -0.047344 0.047344
0 -0.0595659 0.0595659
0 -0.0728822 0.0728822
0 -0.0871686 0.0871686
0 -0.102292 0.102292
0 -0.11811 0.11811
0 -0.134476 0.134476
0 -0.151237 0.151237
0 -0.168237 0.168237
0 -0.185316 0.185316
0 -0.202316 0.202316
0 -0.219077 0.219077
0 -0.235443 0.235443
0 -0.251262 0.251262
0 -0.266385 0.266385
0 -0.280671 0.280671
0 -0.293987 0.293987
0 -0.306209 0.306209
0 -0.317223 0.317223
0 -0.326925 0.326925
0 -0.335225 0.335225
0 -0.342046 0.342046
0 -0.347324 0.347324
0 -0.35101 0.35101
0 -0.35307 0.35307
0 -0.000568754 0.000380029
0 -0.0029909 0.00199845
0 -0.00732478 0.00489426
0 -0.0135309 0.00904106
0 -0.0215515 0.0144002
0 -0.0313116 0.0209217
0 -0.0427201 0.0285447
0 -0.0556706 0.0371979
0 -0.0700421 0.0468006
0 -0.0857005 0.0572632
0 -0.102499 0.0684879
0 -0.120282 0.08037
0 -0.138883 0.0927985
0 -0.158127 0.105657
0 -0.177836 0.118826
0 -0.197826 0.132183
0 -0.217909 0.145602
0 -0.237898 0.158959
0 -0.257607 0.172128
0 -0.276852 0.184987
0 -0.295453 0.197415
0 -0.313235 0.209297
0 -0.330034 0.220522
0 -0.345693 0.230984
0 -0.360064 0.240587
0 -0.373015 0.24924
0 -0.384423 0.256863
0 -0.394183 0.263385
0 -0.402204 0.268744
0 -0.40841 0.272891
0 -0.412744 0.275787
0 -0.415166 0.277405
0 -0.000631966 0.000261769
0 -0.00332331 0.00137656
[...]
POINT_DATA 25600
FIELD FieldData 1
Velocity 3 25600 double
5.10451 -1.12685e-26 1.19989e-46
5.10601 -1.12668e-26 6.30954e-46
5.11375 -1.12581e-26 1.54482e-45
5.13614 -1.12327e-26 2.85158e-45
5.18468 -1.11777e-26 4.53447e-45
5.2732 -1.10768e-26 6.5683e-45
5.41676 -1.09116e-26 8.91746e-45
5.63017 -1.06623e-26 1.15342e-44
5.92624 -1.03089e-26 1.43573e-44
6.31372 -9.83192e-27 1.73118e-44
6.79529 -9.21351e-27 2.03097e-44
7.36562 -8.43859e-27 2.32516e-44
8.00993 -7.49566e-27 2.60301e-44
8.70322 -6.37762e-27 2.85338e-44
9.41052 -5.08243e-27 3.06529e-44
10.0881 -3.61358e-27 3.22851e-44
10.6862 -1.98043e-27 3.33418e-44
11.1522 -1.98224e-28 3.37545e-44
11.4353 1.71203e-27 3.34801e-44
11.4915 3.72391e-27 3.25055e-44
11.2882 5.80614e-27 3.08503e-44
10.8088 7.92339e-27 2.85685e-44
10.056 1.00371e-26 2.57474e-44
9.05335 1.21068e-26 2.25042e-44
7.84557 1.40907e-26 1.8982e-44
6.49633 1.59478e-26 1.53421e-44
5.08437 1.7638e-26 1.17564e-44
3.69785 1.91245e-26 8.3985e-45
2.4276 2.03739e-26 5.4335e-45
1.35976 2.13579e-26 3.0094e-45
0.568491 2.2054e-26 1.24839e-45
0.109533 2.24463e-26 2.39487e-46
5.10451 -1.1052e-26 -2.19837e-27
5.10601 -1.10503e-26 -2.19804e-27
5.11375 -1.10417e-26 -2.19634e-27
5.13614 -1.10169e-26 -2.1914e-27
5.18468 -1.09629e-26 -2.18066e-27
5.2732 -1.08639e-26 -2.16097e-27
5.41676 -1.07019e-26 -2.12874e-27
5.63017 -1.04575e-26 -2.08012e-27
5.92624 -1.01109e-26 -2.01117e-27
6.31372 -9.64301e-27 -1.91811e-27
6.79529 -9.03647e-27 -1.79747e-27
7.36562 -8.27645e-27 -1.64629e-27
8.00993 -7.35163e-27 -1.46233e-27
8.70322 -6.25508e-27 -1.24421e-27
9.41052 -4.98477e-27 -9.91532e-28
10.0881 -3.54415e-27 -7.04975e-28
10.6862 -1.94238e-27 -3.86364e-28
11.1522 -1.94416e-28 -3.86717e-29
11.4353 1.67913e-27 3.34001e-28
11.4915 3.65235e-27 7.26498e-28
11.2882 5.69458e-27 1.13272e-27
10.8088 7.77114e-27 1.54578e-27
10.056 9.84428e-27 1.95815e-27
9.05335 1.18741e-26 2.36191e-27
7.84557 1.382e-26 2.74897e-27
6.49633 1.56413e-26 3.11125e-27
5.08437 1.72991e-26 3.44101e-27
3.69785 1.8757e-26 3.731e-27
2.4276 1.99824e-26 3.97475e-27
1.35976 2.09475e-26 4.16672e-27
0.568491 2.16303e-26 4.30253e-27
0.109533 2.2015e-26 4.37905e-27
5.10451 -1.04107e-26 -4.31226e-27
5.10601 -1.04092e-26 -4.31162e-27
5.11375 -1.04011e-26 -4.30827e-27
5.13614 -1.03777e-26 -4.29858e-27
5.18468 -1.03268e-26 -4.27752e-27
5.2732 -1.02336e-26 -4.2389e-27
5.41676 -1.0081e-26 -4.17568e-27
5.63017 -9.85071e-27 -4.0803e-27
5.92624 -9.52422e-27 -3.94506e-27
6.31372 -9.08351e-27 -3.76251e-27
6.79529 -8.51217e-27 -3.52586e-27
7.36562 -7.79624e-27 -3.22931e-27
8.00993 -6.92509e-27 -2.86847e-27
8.70322 -5.89215e-27 -2.44061e-27
9.41052 -4.69555e-27 -1.94496e-27
10.0881 -3.33852e-27 -1.38286e-27
10.6862 -1.82968e-27 -7.57879e-28
11.1522 -1.83136e-28 -7.58572e-29
11.4353 1.58171e-27 6.55166e-28
11.4915 3.44044e-27 1.42508e-27
11.2882 5.36418e-27 2.22191e-27
10.8088 7.32026e-27 3.03215e-27
10.056 9.27311e-27 3.84105e-27
9.05335 1.11852e-26 4.63306e-27
7.84557 1.30181e-26 5.39229e-27
6.49633 1.47338e-26 6.10294e-27
5.08437 1.62954e-26 6.74978e-27
3.69785 1.76687e-26 7.31862e-27
2.4276 1.8823e-26 7.79675e-27
1.35976 1.97321e-26 8.17332e-27
0.568491 2.03753e-26 8.43971e-27
0.109533 2.07377e-26 8.58982e-27
5.10451 -9.3694e-27 -6.26044e-27
5.10601 -9.368e-27 -6.2595e-27
5.11375 -9.36073e-27 -6.25464e-27
5.13614 -9.33968e-27 -6.24057e-27
5.18468 -9.29392e-27 -6.21e-27
5.2732 -9.21e-27 -6.15393e-27
5.41676 -9.07264e-27 -6.06214e-27
5.63017 -8.8654e-27 -5.92367e-27
5.92624 -8.57157e-27 -5.72734e-27
6.31372 -8.17495e-27 -5.46232e-27
6.79529 -7.66075e-27 -5.11875e-27
7.36562 -7.01643e-27 -4.68823e-27
8.00993 -6.23242e-27 -4.16437e-27
8.70322 -5.3028e-27 -3.54322e-27
9.41052 -4.22588e-27 -2.82364e-27
10.0881 -3.00459e-27 -2.0076e-27
10.6862 -1.64667e-27 -1.10027e-27
11.1522 -1.64818e-28 -1.10128e-28
11.4353 1.4235e-27 9.51153e-28
11.4915 3.09632e-27 2.06889e-27
11.2882 4.82763e-27 3.22572e-27
10.8088 6.58806e-27 4.402e-27
10.056 8.34558e-27 5.57634e-27
9.05335 1.00664e-26 6.72616e-27
7.84557 1.1716e-26 7.8284e-27
6.49633 1.32601e-26 8.8601e-27
5.08437 1.46655e-26 9.79916e-27
3.69785 1.59014e-26 1.0625e-26
2.4276 1.69403e-26 1.13191e-26
1.35976 1.77585e-26 1.18658e-26
0.568491 1.83373e-26 1.22526e-26
0.109533 1.86634e-26 1.24705e-26
5.10451 -7.96802e-27 -7.96802e-27
5.10601 -7.96683e-27 -7.96683e-27
5.11375 -7.96065e-27 -7.96065e-27
5.13614 -7.94274e-27 -7.94274e-27
5.18468 -7.90383e-27 -7.90383e-27
5.2732 -7.83246e-27 -7.83246e-27
5.41676 -7.71565e-27 -7.71565e-27
5.63017 -7.53941e-27 -7.53941e-27
5.92624 -7.28952e-27 -7.28952e-27
6.31372 -6.95222e-27 -6.95222e-27
6.79529 -6.51493e-27 -6.51493e-27
7.36562 -5.96698e-27 -5.96698e-27
8.00993 -5.30023e-27 -5.30023e-27
8.70322 -4.50966e-27 -4.50966e-27
9.41052 -3.59382e-27 -3.59382e-27
10.0881 -2.55519e-27 -2.55519e-27
10.6862 -1.40038e-27 -1.40038e-27
11.1522 -1.40166e-28 -1.40166e-28
11.4353 1.21059e-27 1.21059e-27
11.4915 2.6332e-27 2.6332e-27
11.2882 4.10556e-27 4.10556e-27
10.8088 5.60268e-27 5.60268e-27
10.056 7.09733e-27 7.09733e-27
9.05335 8.56078e-27 8.56078e-27
7.84557 9.96366e-27 9.96366e-27
6.49633 1.12768e-26 1.12768e-26
5.08437 1.2472e-26 1.2472e-26
3.69785 1.3523e-26 1.3523e-26
2.4276 1.44065e-26 1.44065e-26
1.35976 1.51023e-26 1.51023e-26
0.568491 1.55946e-26 1.55946e-26
0.109533 1.58719e-26 1.58719e-26
5.10451 -6.26044e-27 -9.3694e-27
5.10601 -6.2595e-27 -9.368e-27
5.11375 -6.25464e-27 -9.36073e-27
5.13614 -6.24057e-27 -9.33968e-27
5.18468 -6.21e-27 -9.29392e-27
5.2732 -6.15393e-27 -9.21e-27
5.41676 -6.06214e-27 -9.07264e-27
5.63017 -5.92367e-27 -8.8654e-27
5.92624 -5.72734e-27 -8.57157e-27
6.31372 -5.46232e-27 -8.17495e-27
6.79529 -5.11875e-27 -7.66075e-27
7.36562 -4.68823e-27 -7.01643e-27
8.00993 -4.16437e-27 -6.23242e-27
8.70322 -3.54322e-27 -5.3028e-27
9.41052 -2.82364e-27 -4.22588e-27
10.0881 -2.0076e-27 -3.00459e-27
10.6862 -1.10027e-27 -1.64667e-27
11.1522 -1.10128e-28 -1.64818e-28
11.4353 9.51153e-28 1.4235e-27
11.4915 2.06889e-27 3.09632e-27
11.2882 3.22572e-27 4.82763e-27
10.8088 4.402e-27 6.58806e-27
10.056 5.57634e-27 8.34558e-27
9.05335 6.72616e-27 1.00664e-26
7.84557 7.8284e-27 1.1716e-26
6.49633 8.8601e-27 1.32601e-26
5.08437 9.79916e-27 1.46655e-26
3.69785 1.0625e-26 1.59014e-26
2.4276 1.13191e-26 1.69403e-26
1.35976 1.18658e-26 1.77585e-26
0.568491 1.22526e-26 1.83373e-26
0.109533 1.24705e-26 1.86634e-26
5.10451 -4.31226e-27 -1.04107e-26
5.10601 -4.31162e-27 -1.04092e-26
5.11375 -4.30827e-27 -1.04011e-26
5.13614 -4.29858e-27 -1.03777e-26
5.18468 -4.27752e-27 -1.03268e-26
5.2732 -4.2389e-27 -1.02336e-26
5.41676 -4.17568e-27 -1.0081e-26
5.63017 -4.0803e-27 -9.85071e-27
5.92624 -3.94506e-27 -9.52422e-27
6.31372 -3.76251e-27 -9.08351e-27
6.79529 -3.52586e-27 -8.51217e-27
7.36562 -3.22931e-27 -7.79624e-27
8.00993 -2.86847e-27 -6.92509e-27
8.70322 -2.44061e-27 -5.89215e-27
9.41052 -1.94496e-27 -4.69555e-27
10.0881 -1.38286e-27 -3.33852e-27
10.6862 -7.57879e-28 -1.82968e-27
11.1522 -7.58572e-29 -1.83136e-28
11.4353 6.55166e-28 1.58171e-27
11.4915 1.42508e-27 3.44044e-27
11.2882 2.22191e-27 5.36418e-27
10.8088 3.03215e-27 7.32026e-27
10.056 3.84105e-27 9.27311e-27
9.05335 4.63306e-27 1.11852e-26
7.84557 5.39229e-27 1.30181e-26
6.49633 6.10294e-27 1.47338e-26
5.08437 6.74978e-27 1.62954e-26
3.69785 7.31862e-27 1.76687e-26
2.4276 7.79675e-27 1.8823e-26
1.35976 8.17332e-27 1.97321e-26
0.568491 8.43971e-27 2.03753e-26
0.109533 8.58982e-27 2.07377e-26
5.10451 -2.19837e-27 -1.1052e-26
5.10601 -2.19804e-27 -1.10503e-26
5.11375 -2.19634e-27 -1.10417e-26
5.13614 -2.1914e-27 -1.10169e-26
5.18468 -2.18066e-27 -1.09629e-26
5.2732 -2.16097e-27 -1.08639e-26
5.41676 -2.12874e-27 -1.07019e-26
5.63017 -2.08012e-27 -1.04575e-26
5.92624 -2.01117e-27 -1.01109e-26
6.31372 -1.91811e-27 -9.64301e-27
6.79529 -1.79747e-27 -9.03647e-27
7.36562 -1.64629e-27 -8.27645e-27
8.00993 -1.46233e-27 -7.35163e-27
8.70322 -1.24421e-27 -6.25508e-27
9.41052 -9.91532e-28 -4.98477e-27
10.0881 -7.04975e-28 -3.54415e-27
10.6862 -3.86364e-28 -1.94238e-27
11.1522 -3.86717e-29 -1.94416e-28
11.4353 3.34001e-28 1.67913e-27
11.4915 7.26498e-28 3.65235e-27
11.2882 1.13272e-27 5.69458e-27
10.8088 1.54578e-27 7.77114e-27
10.056 1.95815e-27 9.84428e-27
9.05335 2.36191e-27 1.18741e-26
7.84557 2.74897e-27 1.382e-26
6.49633 3.11125e-27 1.56413e-26
5.08437 3.44101e-27 1.72991e-26
3.69785 3.731e-27 1.8757e-26
2.4276 3.97475e-27 1.99824e-26
1.35976 4.16672e-27 2.09475e-26
0.568491 4.30253e-27 2.16303e-26
0.109533 4.37905e-27 2.2015e-26
5.10451 -6.88903e-43 -1.12685e-26
5.10601 -6.84148e-43 -1.12668e-26
5.11375 -6.75292e-43 -1.12581e-26
5.13614 -6.61845e-43 -1.12327e-26
5.18468 -6.43153e-43 -1.11777e-26
5.2732 -6.18457e-43 -1.10768e-26
5.41676 -5.86953e-43 -1.09116e-26
5.63017 -5.47868e-43 -1.06623e-26
5.92624 -5.00526e-43 -1.03089e-26
6.31372 -4.44418e-43 -9.83192e-27
6.79529 -3.79257e-43 -9.21351e-27
7.36562 -3.05023e-43 -8.43859e-27
8.00993 -2.21989e-43 -7.49566e-27
8.70322 -1.30735e-43 -6.37762e-27
9.41052 -3.21337e-44 -5.08243e-27
10.0881 7.26671e-44 -3.61358e-27
10.6862 1.8229e-43 -1.98043e-27
11.1522 2.95176e-43 -1.98224e-28
11.4353 4.09647e-43 1.71203e-27
11.4915 5.23966e-43 3.72391e-27
11.2882 6.36396e-43 5.80614e-27
10.8088 7.45266e-43 7.92339e-27
10.056 8.49011e-43 1.00371e-26
9.05335 9.46213e-43 1.21068e-26
7.84557 1.03563e-42 1.40907e-26
6.49633 1.1162e-42 1.59478e-26
5.08437 1.18705e-42 1.7638e-26
3.69785 1.2475e-42 1.91245e-26
2.4276 1.29701e-42 2.03739e-26
1.35976 1.33519e-42 2.13579e-26
0.568491 1.36179e-42 2.2054e-26
0.109533 1.37662e-42 2.24463e-26
5.10451 2.19837e-27 -1.1052e-26
5.10601 2.19804e-27 -1.10503e-26
5.11375 2.19634e-27 -1.10417e-26
5.13614 2.1914e-27 -1.10169e-26
5.18468 2.18066e-27 -1.09629e-26
5.2732 2.16097e-27 -1.08639e-26
5.41676 2.12874e-27 -1.07019e-26
5.63017 2.08012e-27 -1.04575e-26
5.92624 2.01117e-27 -1.01109e-26
6.31372 1.91811e-27 -9.64301e-27
6.79529 1.79747e-27 -9.03647e-27
7.36562 1.64629e-27 -8.27645e-27
8.00993 1.46233e-27 -7.35163e-27
8.70322 1.24421e-27 -6.25508e-27
9.41052 9.91532e-28 -4.98477e-27
10.0881 7.04975e-28 -3.54415e-27
10.6862 3.86364e-28 -1.94238e-27
11.1522 3.86717e-29 -1.94416e-28
11.4353 -3.34001e-28 1.67913e-27
11.4915 -7.26498e-28 3.65235e-27
11.2882 -1.13272e-27 5.69458e-27
10.8088 -1.54578e-27 7.77114e-27
10.056 -1.95815e-27 9.84428e-27
9.05335 -2.36191e-27 1.18741e-26
7.84557 -2.74897e-27 1.382e-26
6.49633 -3.11125e-27 1.56413e-26
5.08437 -3.44101e-27 1.72991e-26
3.69785 -3.731e-27 1.8757e-26
2.4276 -3.97475e-27 1.99824e-26
1.35976 -4.16672e-27 2.09475e-26
0.568491 -4.30253e-27 2.16303e-26
0.109533 -4.37905e-27 2.2015e-26
5.10451 4.31226e-27 -1.04107e-26
5.10601 4.31162e-27 -1.04092e-26
5.11375 4.30827e-27 -1.04011e-26
5.13614 4.29858e-27 -1.03777e-26
5.18468 4.27752e-27 -1.03268e-26
5.2732 4.2389e-27 -1.02336e-26
5.41676 4.17568e-27 -1.0081e-26
5.63017 4.0803e-27 -9.85071e-27
5.92624 3.94506e-27 -9.52422e-27
6.31372 3.76251e-27 -9.08351e-27
6.79529 3.52586e-27 -8.51217e-27
7.36562 3.22931e-27 -7.79624e-27
8.00993 2.86847e-27 -6.92509e-27
8.70322 2.44061e-27 -5.89215e-27
9.41052 1.94496e-27 -4.69555e-27
10.0881 1.38286e-27 -3.33852e-27
10.6862 7.57879e-28 -1.82968e-27
11.1522 7.58572e-29 -1.83136e-28
11.4353 -6.55166e-28 1.58171e-27
11.4915 -1.42508e-27 3.44044e-27
11.2882 -2.22191e-27 5.36418e-27
10.8088 -3.03215e-27 7.32026e-27
10.056 -3.84105e-27 9.27311e-27
9.05335 -4.63306e-27 1.11852e-26
7.84557 -5.39229e-27 1.30181e-26
6.49633 -6.10294e-27 1.47338e-26
5.08437 -6.74978e-27 1.62954e-26
3.69785 -7.31862e-27 1.76687e-26
2.4276 -7.79675e-27 1.8823e-26
1.35976 -8.17332e-27 1.97321e-26
0.568491 -8.43971e-27 2.03753e-26
0.109533 -8.58982e-27 2.07377e-26
5.10451 6.26044e-27 -9.3694e-27
5.10601 6.2595e-27 -9.368e-27
5.11375 6.25464e-27 -9.36073e-27
5.13614 6.24057e-27 -9.33968e-27
5.18468 6.21e-27 -9.29392e-27
5.2732 6.15393e-27 -9.21e-27
5.41676 6.06214e-27 -9.07264e-27
5.63017 5.92367e-27 -8.8654e-27
5.92624 5.72734e-27 -8.57157e-27
6.31372 5.46232e-27 -8.17495e-27
6.79529 5.11875e-27 -7.66075e-27
7.36562 4.68823e-27 -7.01643e-27
8.00993 4.16437e-27 -6.23242e-27
8.70322 3.54322e-27 -5.3028e-27
9.41052 2.82364e-27 -4.22588e-27
10.0881 2.0076e-27 -3.00459e-27
10.6862 1.10027e-27 -1.64667e-27
11.1522 1.10128e-28 -1.64818e-28
11.4353 -9.51153e-28 1.4235e-27
11.4915 -2.06889e-27 3.09632e-27
11.2882 -3.22572e-27 4.82763e-27
10.8088 -4.402e-27 6.58806e-27
10.056 -5.57634e-27 8.34558e-27
9.05335 -6.72616e-27 1.00664e-26
7.84557 -7.8284e-27 1.1716e-26
6.49633 -8.8601e-27 1.32601e-26
5.08437 -9.79916e-27 1.46655e-26
3.69785 -1.0625e-26 1.59014e-26
2.4276 -1.13191e-26 1.69403e-26
1.35976 -1.18658e-26 1.77585e-26
0.568491 -1.22526e-26 1.83373e-26
0.109533 -1.24705e-26 1.86634e-26
5.10451 7.96802e-27 -7.96802e-27
5.10601 7.96683e-27 -7.96683e-27
5.11375 7.96065e-27 -7.96065e-27
5.13614 7.94274e-27 -7.94274e-27
5.18468 7.90383e-27 -7.90383e-27
5.2732 7.83246e-27 -7.83246e-27
5.41676 7.71565e-27 -7.71565e-27
5.63017 7.53941e-27 -7.53941e-27
5.92624 7.28952e-27 -7.28952e-27
6.31372 6.95222e-27 -6.95222e-27
6.79529 6.51493e-27 -6.51493e-27
7.36562 5.96698e-27 -5.96698e-27
8.00993 5.30023e-27 -5.30023e-27
8.70322 4.50966e-27 -4.50966e-27
9.41052 3.59382e-27 -3.59382e-27
10.0881 2.55519e-27 -2.55519e-27
10.6862 1.40038e-27 -1.40038e-27
11.1522 1.40166e-28 -1.40166e-28
11.4353 -1.21059e-27 1.21059e-27
11.4915 -2.6332e-27 2.6332e-27
11.2882 -4.10556e-27 4.10556e-27
10.8088 -5.60268e-27 5.60268e-27
10.056 -7.09733e-27 7.09733e-27
9.05335 -8.56078e-27 8.56078e-27
7.84557 -9.96366e-27 9.96366e-27
6.49633 -1.12768e-26 1.12768e-26
5.08437 -1.2472e-26 1.2472e-26
3.69785 -1.3523e-26 1.3523e-26
2.4276 -1.44065e-26 1.44065e-26
1.35976 -1.51023e-26 1.51023e-26
0.568491 -1.55946e-26 1.55946e-26
0.109533 -1.58719e-26 1.58719e-26
5.10451 9.3694e-27 -6.26044e-27
5.10601 9.368e-27 -6.2595e-27
5.11375 9.36073e-27 -6.25464e-27
5.13614 9.33968e-27 -6.24057e-27
5.18468 9.29392e-27 -6.21e-27
5.2732 9.21e-27 -6.15393e-27
5.41676 9.07264e-27 -6.06214e-27
5.63017 8.8654e-27 -5.92367e-27
5.92624 8.57157e-27 -5.72734e-27
6.31372 8.17495e-27 -5.46232e-27
6.79529 7.66075e-27 -5.11875e-27
7.36562 7.01643e-27 -4.68823e-27
8.00993 6.23242e-27 -4.16437e-27
8.70322 5.3028e-27 -3.54322e-27
9.41052 4.22588e-27 -2.82364e-27
10.0881 3.00459e-27 -2.0076e-27
10.6862 1.64667e-27 -1.10027e-27
11.1522 1.64818e-28 -1.10128e-28
11.4353 -1.4235e-27 9.51153e-28
11.4915 -3.09632e-27 2.06889e-27
11.2882 -4.82763e-27 3.22572e-27
10.8088 -6.58806e-27 4.402e-27
10.056 -8.34558e-27 5.57634e-27
9.05335 -1.00664e-26 6.72616e-27
7.84557 -1.1716e-26 7.8284e-27
6.49633 -1.32601e-26 8.8601e-27
5.08437 -1.46655e-26 9.79916e-27
3.69785 -1.59014e-26 1.0625e-26
2.4276 -1.69403e-26 1.13191e-26
1.35976 -1.77585e-26 1.18658e-26
0.568491 -1.83373e-26 1.22526e-26
0.109533 -1.86634e-26 1.24705e-26
5.10451 1.04107e-26 -4.31226e-27
5.10601 1.04092e-26 -4.31162e-27
5.11375 1.04011e-26 -4.30827e-27
5.13614 1.03777e-26 -4.29858e-27
5.18468 1.03268e-26 -4.27752e-27
5.2732 1.02336e-26 -4.2389e-27
5.41676 1.0081e-26 -4.17568e-27
5.63017 9.85071e-27 -4.0803e-27
5.92624 9.52422e-27 -3.94506e-27
6.31372 9.08351e-27 -3.76251e-27
6.79529 8.51217e-27 -3.52586e-27
7.36562 7.79624e-27 -3.22931e-27
8.00993 6.92509e-27 -2.86847e-27
8.70322 5.89215e-27 -2.44061e-27
9.41052 4.69555e-27 -1.94496e-27
10.0881 3.33852e-27 -1.38286e-27
10.6862 1.82968e-27 -7.57879e-28
11.1522 1.83136e-28 -7.58572e-29
11.4353 -1.58171e-27 6.55166e-28
11.4915 -3.44044e-27 1.42508e-27
11.2882 -5.36418e-27 2.22191e-27
10.8088 -7.32026e-27 3.03215e-27
10.056 -9.27311e-27 3.84105e-27
9.05335 -1.11852e-26 4.63306e-27
7.84557 -1.30181e-26 5.39229e-27
6.49633 -1.47338e-26 6.10294e-27
5.08437 -1.62954e-26 6.74978e-27
3.69785 -1.76687e-26 7.31862e-27
2.4276 -1.8823e-26 7.79675e-27
1.35976 -1.97321e-26 8.17332e-27
0.568491 -2.03753e-26 8.43971e-27
0.109533 -2.07377e-26 8.58982e-27
5.10451 1.1052e-26 -2.19837e-27
5.10601 1.10503e-26 -2.19804e-27
5.11375 1.10417e-26 -2.19634e-27
5.13614 1.10169e-26 -2.1914e-27
5.18468 1.09629e-26 -2.18066e-27
5.2732 1.08639e-26 -2.16097e-27
5.41676 1.07019e-26 -2.12874e-27
5.63017 1.04575e-26 -2.08012e-27
5.92624 1.01109e-26 -2.01117e-27
6.31372 9.64301e-27 -1.91811e-27
6.79529 9.03647e-27 -1.79747e-27
7.36562 8.27645e-27 -1.64629e-27
8.00993 7.35163e-27 -1.46233e-27
8.70322 6.25508e-27 -1.24421e-27
9.41052 4.98477e-27 -9.91532e-28
10.0881 3.54415e-27 -7.04975e-28
10.6862 1.94238e-27 -3.86364e-28
11.1522 1.94416e-28 -3.86717e-29
11.4353 -1.67913e-27 3.34001e-28
11.4915 -3.65235e-27 7.26498e-28
11.2882 -5.69458e-27 1.13272e-27
10.8088 -7.77114e-27 1.54578e-27
10.056 -9.84428e-27 1.95815e-27
9.05335 -1.18741e-26 2.36191e-27
7.84557 -1.382e-26 2.74897e-27
6.49633 -1.56413e-26 3.11125e-27
5.08437 -1.72991e-26 3.44101e-27
3.69785 -1.8757e-26 3.731e-27
2.4276 -1.99824e-26 3.97475e-27
1.35976 -2.09475e-26 4.16672e-27
0.568491 -2.16303e-26 4.30253e-27
0.109533 -2.2015e-26 4.37905e-27
5.10451 1.12685e-26 -1.37987e-42
5.10601 1.12668e-26 -1.37915e-42
5.11375 1.12581e-26 -1.37717e-42
5.13614 1.12327e-26 -1.37276e-42
5.18468 1.11777e-26 -1.36434e-42
5.2732 1.10768e-26 -1.34995e-42
5.41676 1.09116e-26 -1.32736e-42
5.63017 1.06623e-26 -1.29422e-42
5.92624 1.03089e-26 -1.24812e-42
6.31372 9.83192e-27 -1.18675e-42
6.79529 9.21351e-27 -1.10802e-42
7.36562 8.43859e-27 -1.01018e-42
8.00993 7.49566e-27 -8.91924e-43
8.70322 6.37762e-27 -7.525e-43
9.41052 5.08243e-27 -5.91765e-43
10.0881 3.61358e-27 -4.10251e-43
10.6862 1.98043e-27 -2.09191e-43
11.1522 1.98224e-28 9.47905e-45
11.4353 -1.71203e-27 2.43143e-43
11.4915 -3.72391e-27 4.88553e-43
11.2882 -5.80614e-27 7.41898e-43
10.8088 -7.92339e-27 9.98904e-43
10.056 -1.00371e-26 1.25494e-42
9.05335 -1.21068e-26 1.50516e-42
7.84557 -1.40907e-26 1.7446e-42
6.49633 -1.59478e-26 1.96838e-42
5.08437 -1.7638e-26 2.17179e-42
3.69785 -1.91245e-26 2.35047e-42
2.4276 -2.03739e-26 2.50051e-42
1.35976 -2.13579e-26 2.6186e-42
0.568491 -2.2054e-26 2.70209e-42
0.109533 -2.24463e-26 2.74912e-42
5.10451 1.1052e-26 2.19837e-27
5.10601 1.10503e-26 2.19804e-27
5.11375 1.10417e-26 2.19634e-27
5.13614 1.10169e-26 2.1914e-27
5.18468 1.09629e-26 2.18066e-27
5.2732 1.08639e-26 2.16097e-27
5.41676 1.07019e-26 2.12874e-27
5.63017 1.04575e-26 2.08012e-27
5.92624 1.01109e-26 2.01117e-27
6.31372 9.64301e-27 1.91811e-27
6.79529 9.03647e-27 1.79747e-27
7.36562 8.27645e-27 1.64629e-27
8.00993 7.35163e-27 1.46233e-27
8.70322 6.25508e-27 1.24421e-27
9.41052 4.98477e-27 9.91532e-28
10.0881 3.54415e-27 7.04975e-28
10.6862 1.94238e-27 3.86364e-28
11.1522 1.94416e-28 3.86717e-29
11.4353 -1.67913e-27 -3.34001e-28
11.4915 -3.65235e-27 -7.26498e-28
11.2882 -5.69458e-27 -1.13272e-27
10.8088 -7.77114e-27 -1.54578e-27
10.056 -9.84428e-27 -1.95815e-27
9.05335 -1.18741e-26 -2.36191e-27
7.84557 -1.382e-26 -2.74897e-27
6.49633 -1.56413e-26 -3.11125e-27
5.08437 -1.72991e-26 -3.44101e-27
3.69785 -1.8757e-26 -3.731e-27
2.4276 -1.99824e-26 -3.97475e-27
1.35976 -2.09475e-26 -4.16672e-27
0.568491 -2.16303e-26 -4.30253e-27
0.109533 -2.2015e-26 -4.37905e-27
5.10451 1.04107e-26 4.31226e-27
5.10601 1.04092e-26 4.31162e-27
5.11375 1.04011e-26 4.30827e-27
5.13614 1.03777e-26 4.29858e-27
5.18468 1.03268e-26 4.27752e-27
5.2732 1.02336e-26 4.2389e-27
5.41676 1.0081e-26 4.17568e-27
5.63017 9.85071e-27 4.0803e-27
5.92624 9.52422e-27 3.94506e-27
6.31372 9.08351e-27 3.76251e-27
6.79529 8.51217e-27 3.52586e-27
7.36562 7.79624e-27 3.22931e-27
8.00993 6.92509e-27 2.86847e-27
8.70322 5.89215e-27 2.44061e-27
9.41052 4.69555e-27 1.94496e-27
10.0881 3.33852e-27 1.38286e-27