# vtk DataFile Version 3.0
LifeV output
ASCII
DATASET UNSTRUCTURED_GRID
POINTS 25600 float
0 0.000684035 0
0 0.00359712 0
0 0.00880944 0
0 0.0162735 0
0 0.0259197 0
0 0.0376581 0
0 0.0513791 0
0 0.0669545 0
0 0.0842389 0
0 0.103071 0
0 0.123275 0
0 0.144662 0
0 0.167033 0
0 0.190178 0
0 0.213882 0
0 0.237923 0
0 0.262077 0
0 0.286118 0
0 0.309822 0
0 0.332967 0
0 0.355338 0
0 0.376725 0
0 0.396929 0
0 0.415761 0
0 0.433046 0
0 0.448621 0
0 0.462342 0
0 0.47408 0
0 0.483727 0
0 0.491191 0
0 0.496403 0
0 0.499316 0
0 0.000670891 0.000133449
0 0.003528 0.000701764
0 0.00864017 0.00171864
0 0.0159608 0.0031748
0 0.0254217 0.00505668
0 0.0369345 0.00734673
0 0.0503918 0.0100236
0 0.065668 0.0130622
0 0.0826203 0.0164342
0 0.101091 0.0201082
0 0.120906 0.0240498
0 0.141883 0.0282222
0 0.163823 0.0325865
0 0.186524 0.0371019
0 0.209772 0.0417263
0 0.233351 0.0464165
0 0.257041 0.0511287
0 0.28062 0.0558189
0 0.303869 0.0604432
0 0.326569 0.0649587
0 0.34851 0.069323
0 0.369486 0.0734954
0 0.389302 0.077437
0 0.407772 0.081111
0 0.424725 0.084483
0 0.440001 0.0875216
0 0.453458 0.0901984
0 0.464971 0.0924885
0 0.474432 0.0943704
0 0.481752 0.0958265
0 0.486865 0.0968434
0 0.489722 0.0974117
0 0.000631966 0.000261769
0 0.00332331 0.00137656
0 0.00813886 0.00337123
0 0.0150347 0.00622759
0 0.0239467 0.00991904
0 0.0347915 0.0144111
0 0.0474681 0.0196619
0 0.0618579 0.0256224
0 0.0778266 0.0322368
0 0.0952252 0.0394436
0 0.113891 0.0471753
0 0.13365 0.0553598
0 0.154318 0.0639207
0 0.175702 0.072778
0 0.197601 0.0818491
0 0.219812 0.0910492
0 0.242127 0.100292
0 0.264339 0.109493
0 0.286238 0.118564
0 0.307622 0.127421
0 0.328289 0.135982
0 0.348048 0.144166
0 0.366715 0.151898
0 0.384113 0.159105
0 0.400082 0.165719
0 0.414472 0.17168
0 0.427148 0.176931
0 0.437993 0.181423
0 0.446905 0.185114
0 0.453801 0.18797
0 0.458616 0.189965
0 0.461308 0.19108
0 0.000568754 0.000380029
0 0.0029909 0.00199845
0 0.00732478 0.00489426
0 0.0135309 0.00904106
0 0.0215515 0.0144002
0 0.0313116 0.0209217
0 0.0427201 0.0285447
0 0.0556706 0.0371979
0 0.0700421 0.0468006
0 0.0857005 0.0572632
0 0.102499 0.0684879
0 0.120282 0.08037
0 0.138883 0.0927985
0 0.158127 0.105657
0 0.177836 0.118826
0 0.197826 0.132183
0 0.217909 0.145602
0 0.237898 0.158959
0 0.257607 0.172128
0 0.276852 0.184987
0 0.295453 0.197415
0 0.313235 0.209297
0 0.330034 0.220522
0 0.345693 0.230984
0 0.360064 0.240587
0 0.373015 0.24924
0 0.384423 0.256863
0 0.394183 0.263385
0 0.402204 0.268744
0 0.40841 0.272891
0 0.412744 0.275787
0 0.415166 0.277405
0 0.000483685 0.000483685
0 0.00254355 0.00254355
0 0.00622921 0.00622921
0 0.0115071 0.0115071
0 0.018328 0.018328
0 0.0266283 0.0266283
0 0.0363305 0.0363305
0 0.047344 0.047344
0 0.0595659 0.0595659
0 0.0728822 0.0728822
0 0.0871686 0.0871686
0 0.102292 0.102292
0 0.11811 0.11811
0 0.134476 0.134476
0 0.151237 0.151237
0 0.168237 0.168237
0 0.185316 0.185316
0 0.202316 0.202316
0 0.219077 0.219077
0 0.235443 0.235443
0 0.251262 0.251262
0 0.266385 0.266385
0 0.280671 0.280671
0 0.293987 0.293987
0 0.306209 0.306209
0 0.317223 0.317223
0 0.326925 0.326925
0 0.335225 0.335225
0 0.342046 0.342046
0 0.347324 0.347324
0 0.35101 0.35101
0 0.35307 0.35307
0 0.000380029 0.000568754
0 0.00199845 0.0029909
0 0.00489426 0.00732478
0 0.00904106 0.0135309
0 0.0144002 0.0215515
0 0.0209217 0.0313116
0 0.0285447 0.0427201
0 0.0371979 0.0556706
0 0.0468006 0.0700421
0 0.0572632 0.0857005
0 0.0684879 0.102499
0 0.08037 0.120282
0 0.0927985 0.138883
0 0.105657 0.158127
0 0.118826 0.177836
0 0.132183 0.197826
0 0.145602 0.217909
0 0.158959 0.237898
0 0.172128 0.257607
0 0.184987 0.276852
0 0.197415 0.295453
0 0.209297 0.313235
0 0.220522 0.330034
0 0.230984 0.345693
0 0.240587 0.360064
0 0.24924 0.373015
0 0.256863 0.384423
0 0.263385 0.394183
0 0.268744 0.402204
0 0.272891 0.40841
0 0.275787 0.412744
0 0.277405 0.415166
0 0.000261769 0.000631966
0 0.00137656 0.00332331
0 0.00337123 0.00813886
0 0.00622759 0.0150347
0 0.00991904 0.0239467
0 0.0144111 0.0347915
0 0.0196619 0.0474681
0 0.0256224 0.0618579
0 0.0322368 0.0778266
0 0.0394436 0.0952252
0 0.0471753 0.113891
0 0.0553598 0.13365
0 0.0639207 0.154318
0 0.072778 0.175702
0 0.0818491 0.197601
0 0.0910492 0.219812
0 0.100292 0.242127
0 0.109493 0.264339
0 0.118564 0.286238
0 0.127421 0.307622
0 0.135982 0.328289
0 0.144166 0.348048
0 0.151898 0.366715
0 0.159105 0.384113
0 0.165719 0.400082
0 0.17168 0.414472
0 0.176931 0.427148
0 0.181423 0.437993
0 0.185114 0.446905
0 0.18797 0.453801
0 0.189965 0.458616
0 0.19108 0.461308
0 0.000133449 0.000670891
0 0.000701764 0.003528
0 0.00171864 0.00864017
0 0.0031748 0.0159608
0 0.00505668 0.0254217
0 0.00734673 0.0369345
0 0.0100236 0.0503918
0 0.0130622 0.065668
0 0.0164342 0.0826203
0 0.0201082 0.101091
0 0.0240498 0.120906
0 0.0282222 0.141883
0 0.0325865 0.163823
0 0.0371019 0.186524
0 0.0417263 0.209772
0 0.0464165 0.233351
0 0.0511287 0.257041
0 0.0558189 0.28062
0 0.0604432 0.303869
0 0.0649587 0.326569
0 0.069323 0.34851
0 0.0734954 0.369486
0 0.077437 0.389302
0 0.081111 0.407772
0 0.084483 0.424725
0 0.0875216 0.440001
0 0.0901984 0.453458
0 0.0924885 0.464971
0 0.0943704 0.474432
0 0.0958265 0.481752
0 0.0968434 0.486865
0 0.0974117 0.489722
0 4.1885e-20 0.000684035
0 2.2026e-19 0.00359712
0 5.39422e-19 0.00880944
0 9.96463e-19 0.0162735
0 1.58712e-18 0.0259197
0 2.30589e-18 0.0376581
0 3.14606e-18 0.0513791
0 4.09978e-18 0.0669545
0 5.15815e-18 0.0842389
0 6.31128e-18 0.103071
0 7.54842e-18 0.123275
0 8.858e-18 0.144662
0 1.02278e-17 0.167033
0 1.16451e-17 0.190178
0 1.30965e-17 0.213882
0 1.45686e-17 0.237923
0 1.60476e-17 0.262077
0 1.75197e-17 0.286118
0 1.89711e-17 0.309822
0 2.03884e-17 0.332967
0 2.17582e-17 0.355338
0 2.30678e-17 0.376725
0 2.43049e-17 0.396929
0 2.5458e-17 0.415761
0 2.65164e-17 0.433046
0 2.74701e-17 0.448621
0 2.83103e-17 0.462342
0 2.9029e-17 0.47408
0 2.96197e-17 0.483727
0 3.00767e-17 0.491191
0 3.03959e-17 0.496403
0 3.05743e-17 0.499316
0 -0.000133449 0.000670891
0 -0.000701764 0.003528
0 -0.00171864 0.00864017
0 -0.0031748 0.0159608
0 -0.00505668 0.0254217
0 -0.00734673 0.0369345
0 -0.0100236 0.0503918
0 -0.0130622 0.065668
0 -0.0164342 0.0826203
0 -0.0201082 0.101091
0 -0.0240498 0.120906
0 -0.0282222 0.141883
0 -0.0325865 0.163823
0 -0.0371019 0.186524
0 -0.0417263 0.209772
0 -0.0464165 0.233351
0 -0.0511287 0.257041
0 -0.0558189 0.28062
0 -0.0604432 0.303869
0 -0.0649587 0.326569
0 -0.069323 0.34851
0 -0.0734954 0.369486
0 -0.077437 0.389302
0 -0.081111 0.407772
0 -0.084483 0.424725
0 -0.0875216 0.440001
0 -0.0901984 0.453458
0 -0.0924885 0.464971
0 -0.0943704 0.474432
0 -0.0958265 0.481752
0 -0.0968434 0.486865
0 -0.0974117 0.489722
0 -0.000261769 0.000631966
0 -0.00137656 0.00332331
0 -0.00337123 0.00813886
0 -0.00622759 0.0150347
0 -0.00991904 0.0239467
0 -0.0144111 0.0347915
0 -0.0196619 0.0474681
0 -0.0256224 0.0618579
0 -0.0322368 0.0778266
0 -0.0394436 0.0952252
0 -0.0471753 0.113891
0 -0.0553598 0.13365
0 -0.0639207 0.154318
0 -0.072778 0.175702
0 -0.0818491 0.197601
0 -0.0910492 0.219812
0 -0.100292 0.242127
0 -0.109493 0.264339
0 -0.118564 0.286238
0 -0.127421 0.307622
0 -0.135982 0.328289
0 -0.144166 0.348048
0 -0.151898 0.366715
0 -0.159105 0.384113
0 -0.165719 0.400082
0 -0.17168 0.414472
0 -0.176931 0.427148
0 -0.181423 0.437993
0 -0.185114 0.446905
0 -0.18797 0.453801
0 -0.189965 0.458616
0 -0.19108 0.461308
0 -0.000380029 0.000568754
0 -0.00199845 0.0029909
0 -0.00489426 0.00732478
0 -0.00904106 0.0135309
0 -0.0144002 0.0215515
0 -0.0209217 0.0313116
0 -0.0285447 0.0427201
0 -0.0371979 0.0556706
0 -0.0468006 0.0700421
0 -0.0572632 0.0857005
0 -0.0684879 0.102499
0 -0.08037 0.120282
0 -0.0927985 0.138883
0 -0.105657 0.158127
0 -0.118826 0.177836
0 -0.132183 0.197826
0 -0.145602 0.217909
0 -0.158959 0.237898
0 -0.172128 0.257607
0 -0.184987 0.276852
0 -0.197415 0.295453
0 -0.209297 0.313235
0 -0.220522 0.330034
0 -0.230984 0.345693
0 -0.240587 0.360064
0 -0.24924 0.373015
0 -0.256863 0.384423
0 -0.263385 0.394183
0 -0.268744 0.402204
0 -0.272891 0.40841
0 -0.275787 0.412744
0 -0.277405 0.415166
0 -0.000483685 0.000483685
0 -0.00254355 0.00254355
0 -0.00622921 0.00622921
0 -0.0115071 0.0115071
0 -0.018328 0.018328
0 -0.0266283 0.0266283
0 -0.0363305 0.0363305
0 -0.047344 0.047344
0 -0.0595659 0.0595659
0 -0.0728822 0.0728822
0 -0.0871686 0.0871686
0 -0.102292 0.102292
0 -0.11811 0.11811
0 -0.134476 0.134476
0 -0.151237 0.151237
0 -0.168237 0.168237
0 -0.185316 0.185316
0 -0.202316 0.202316
0 -0.219077 0.219077
0 -0.235443 0.235443
0 -0.251262 0.251262
0 -0.266385 0.266385
0 -0.280671 0.280671
0 -0.293987 0.293987
0 -0.306209 0.306209
0 -0.317223 0.317223
0 -0.326925 0.326925
0 -0.335225 0.335225
0 -0.342046 0.342046
0 -0.347324 0.347324
0 -0.35101 0.35101
0 -0.35307 0.35307
0 -0.000568754 0.000380029
0 -0.0029909 0.00199845
0 -0.00732478 0.00489426
0 -0.0135309 0.00904106
0 -0.0215515 0.0144002
0 -0.0313116 0.0209217
0 -0.0427201 0.0285447
0 -0.0556706 0.0371979
0 -0.0700421 0.0468006
0 -0.0857005 0.0572632
0 -0.102499 0.0684879
0 -0.120282 0.08037
0 -0.138883 0.0927985
0 -0.158127 0.105657
0 -0.177836 0.118826
0 -0.197826 0.132183
0 -0.217909 0.145602
0 -0.237898 0.158959
0 -0.257607 0.172128
0 -0.276852 0.184987
0 -0.295453 0.197415
0 -0.313235 0.209297
0 -0.330034 0.220522
0 -0.345693 0.230984
0 -0.360064 0.240587
0 -0.373015 0.24924
0 -0.384423 0.256863
0 -0.394183 0.263385
0 -0.402204 0.268744
0 -0.40841 0.272891
0 -0.412744 0.275787
0 -0.415166 0.277405
0 -0.000631966 0.000261769
0 -0.00332331 0.00137656
[...]
POINT_DATA 25600
FIELD FieldData 1
Velocity 3 25600 double
5.08449 -4.8214e-27 4.91732e-47
5.08599 -4.82068e-27 2.58574e-46
5.09376 -4.81693e-27 6.33089e-46
5.11621 -4.80609e-27 1.16862e-45
5.1649 -4.78252e-27 1.85829e-45
5.2537 -4.73931e-27 2.69178e-45
5.3977 -4.66857e-27 3.6545e-45
5.61178 -4.56186e-27 4.72686e-45
5.90877 -4.41054e-27 5.88381e-45
6.29748 -4.2063e-27 7.09463e-45
6.7806 -3.94151e-27 8.32321e-45
7.3528 -3.6097e-27 9.52884e-45
7.99928 -3.20597e-27 1.06675e-44
8.69501 -2.72725e-27 1.16935e-44
9.40492 -2.17268e-27 1.2562e-44
10.0853 -1.54375e-27 1.32309e-44
10.686 -8.44479e-28 1.36639e-44
11.1545 -8.13793e-29 1.38331e-44
11.44 7.36546e-28 1.37206e-44
11.4981 1.59798e-27 1.33212e-44
11.2963 2.48955e-27 1.26429e-44
10.8179 3.3961e-27 1.17078e-44
10.0654 4.30116e-27 1.05516e-44
9.06254 5.18732e-27 9.22254e-45
7.85406 6.03681e-27 7.77907e-45
6.50373 6.83194e-27 6.28738e-45
5.09039 7.55567e-27 4.81795e-45
3.70236 8.19213e-27 3.44182e-45
2.43064 8.7271e-27 2.22672e-45
1.36148 9.14844e-27 1.23329e-45
0.569222 9.4465e-27 5.11607e-46
0.109675 9.61445e-27 9.81449e-47
5.08449 -4.72876e-27 -9.40608e-28
5.08599 -4.72805e-27 -9.40467e-28
5.09376 -4.72437e-27 -9.39737e-28
5.11621 -4.71374e-27 -9.37622e-28
5.1649 -4.69063e-27 -9.33024e-28
5.2537 -4.64825e-27 -9.24594e-28
5.3977 -4.57887e-27 -9.10794e-28
5.61178 -4.4742e-27 -8.89974e-28
5.90877 -4.32579e-27 -8.60454e-28
6.29748 -4.12547e-27 -8.20608e-28
6.7806 -3.86577e-27 -7.6895e-28
7.3528 -3.54035e-27 -7.04218e-28
7.99928 -3.14436e-27 -6.25453e-28
8.69501 -2.67484e-27 -5.3206e-28
9.40492 -2.13093e-27 -4.23868e-28
10.0853 -1.51409e-27 -3.01171e-28
10.686 -8.28252e-28 -1.6475e-28
11.1545 -7.98157e-29 -1.58763e-29
11.44 7.22393e-28 1.43693e-28
11.4981 1.56728e-27 3.11751e-28
11.2963 2.44171e-27 4.85686e-28
10.8179 3.33084e-27 6.62546e-28
10.0654 4.21851e-27 8.39114e-28
9.06254 5.08765e-27 1.012e-27
7.85406 5.92082e-27 1.17772e-27
6.50373 6.70066e-27 1.33284e-27
5.09039 7.41049e-27 1.47404e-27
3.70236 8.03472e-27 1.59821e-27
2.43064 8.55941e-27 1.70257e-27
1.36148 8.97265e-27 1.78477e-27
0.569222 9.26499e-27 1.84292e-27
0.109675 9.42971e-27 1.87569e-27
5.08449 -4.45439e-27 -1.84507e-27
5.08599 -4.45372e-27 -1.84479e-27
5.09376 -4.45026e-27 -1.84336e-27
5.11621 -4.44025e-27 -1.83921e-27
5.1649 -4.41848e-27 -1.83019e-27
5.2537 -4.37855e-27 -1.81366e-27
5.3977 -4.3132e-27 -1.78659e-27
5.61178 -4.21461e-27 -1.74575e-27
5.90877 -4.07481e-27 -1.68784e-27
6.29748 -3.88611e-27 -1.60968e-27
6.7806 -3.64148e-27 -1.50835e-27
7.3528 -3.33493e-27 -1.38137e-27
7.99928 -2.96193e-27 -1.22687e-27
8.69501 -2.51965e-27 -1.04367e-27
9.40492 -2.00729e-27 -8.31447e-28
10.0853 -1.42624e-27 -5.90769e-28
10.686 -7.80196e-28 -3.23168e-28
11.1545 -7.51847e-29 -3.11425e-29
11.44 6.80479e-28 2.81864e-28
11.4981 1.47634e-27 6.11521e-28
11.2963 2.30004e-27 9.52708e-28
10.8179 3.13759e-27 1.29963e-27
10.0654 3.97375e-27 1.64598e-27
9.06254 4.79246e-27 1.9851e-27
7.85406 5.57729e-27 2.31019e-27
6.50373 6.31189e-27 2.61447e-27
5.09039 6.98053e-27 2.89143e-27
3.70236 7.56854e-27 3.13499e-27
2.43064 8.06279e-27 3.33972e-27
1.36148 8.45206e-27 3.50096e-27
0.569222 8.72743e-27 3.61502e-27
0.109675 8.88259e-27 3.67929e-27
5.08449 -4.00885e-27 -2.67862e-27
5.08599 -4.00824e-27 -2.67822e-27
5.09376 -4.00513e-27 -2.67614e-27
5.11621 -3.99612e-27 -2.67012e-27
5.1649 -3.97652e-27 -2.65703e-27
5.2537 -3.94059e-27 -2.63302e-27
5.3977 -3.88178e-27 -2.59372e-27
5.61178 -3.79304e-27 -2.53443e-27
5.90877 -3.66723e-27 -2.45037e-27
6.29748 -3.49741e-27 -2.33689e-27
6.7806 -3.27724e-27 -2.18978e-27
7.3528 -3.00136e-27 -2.00544e-27
7.99928 -2.66566e-27 -1.78114e-27
8.69501 -2.26762e-27 -1.51518e-27
9.40492 -1.80651e-27 -1.20707e-27
10.0853 -1.28358e-27 -8.57664e-28
10.686 -7.02158e-28 -4.69167e-28
11.1545 -6.76645e-29 -4.52119e-29
11.44 6.12415e-28 4.09203e-28
11.4981 1.32867e-27 8.87792e-28
11.2963 2.06998e-27 1.38312e-27
10.8179 2.82375e-27 1.88677e-27
10.0654 3.57628e-27 2.38959e-27
9.06254 4.3131e-27 2.88192e-27
7.85406 5.01942e-27 3.35387e-27
6.50373 5.68055e-27 3.79562e-27
5.09039 6.28231e-27 4.1977e-27
3.70236 6.81151e-27 4.5513e-27
2.43064 7.25632e-27 4.84852e-27
1.36148 7.60665e-27 5.0826e-27
0.569222 7.85448e-27 5.24819e-27
0.109675 7.99412e-27 5.3415e-27
5.08449 -3.40924e-27 -3.40924e-27
5.08599 -3.40873e-27 -3.40873e-27
5.09376 -3.40608e-27 -3.40608e-27
5.11621 -3.39842e-27 -3.39842e-27
5.1649 -3.38176e-27 -3.38176e-27
5.2537 -3.3512e-27 -3.3512e-27
5.3977 -3.30118e-27 -3.30118e-27
5.61178 -3.22572e-27 -3.22572e-27
5.90877 -3.11872e-27 -3.11872e-27
6.29748 -2.9743e-27 -2.9743e-27
6.7806 -2.78707e-27 -2.78707e-27
7.3528 -2.55245e-27 -2.55245e-27
7.99928 -2.26696e-27 -2.26696e-27
8.69501 -1.92845e-27 -1.92845e-27
9.40492 -1.53631e-27 -1.53631e-27
10.0853 -1.0916e-27 -1.0916e-27
10.686 -5.97136e-28 -5.97136e-28
11.1545 -5.75439e-29 -5.75439e-29
11.44 5.20816e-28 5.20816e-28
11.4981 1.12994e-27 1.12994e-27
11.2963 1.76037e-27 1.76037e-27
10.8179 2.4014e-27 2.4014e-27
10.0654 3.04138e-27 3.04138e-27
9.06254 3.66799e-27 3.66799e-27
7.85406 4.26867e-27 4.26867e-27
6.50373 4.83091e-27 4.83091e-27
5.09039 5.34266e-27 5.34266e-27
3.70236 5.79271e-27 5.79271e-27
2.43064 6.17099e-27 6.17099e-27
1.36148 6.46892e-27 6.46892e-27
0.569222 6.67968e-27 6.67968e-27
0.109675 6.79844e-27 6.79844e-27
5.08449 -2.67862e-27 -4.00885e-27
5.08599 -2.67822e-27 -4.00824e-27
5.09376 -2.67614e-27 -4.00513e-27
5.11621 -2.67012e-27 -3.99612e-27
5.1649 -2.65703e-27 -3.97652e-27
5.2537 -2.63302e-27 -3.94059e-27
5.3977 -2.59372e-27 -3.88178e-27
5.61178 -2.53443e-27 -3.79304e-27
5.90877 -2.45037e-27 -3.66723e-27
6.29748 -2.33689e-27 -3.49741e-27
6.7806 -2.18978e-27 -3.27724e-27
7.3528 -2.00544e-27 -3.00136e-27
7.99928 -1.78114e-27 -2.66566e-27
8.69501 -1.51518e-27 -2.26762e-27
9.40492 -1.20707e-27 -1.80651e-27
10.0853 -8.57664e-28 -1.28358e-27
10.686 -4.69167e-28 -7.02158e-28
11.1545 -4.52119e-29 -6.76645e-29
11.44 4.09203e-28 6.12415e-28
11.4981 8.87792e-28 1.32867e-27
11.2963 1.38312e-27 2.06998e-27
10.8179 1.88677e-27 2.82375e-27
10.0654 2.38959e-27 3.57628e-27
9.06254 2.88192e-27 4.3131e-27
7.85406 3.35387e-27 5.01942e-27
6.50373 3.79562e-27 5.68055e-27
5.09039 4.1977e-27 6.28231e-27
3.70236 4.5513e-27 6.81151e-27
2.43064 4.84852e-27 7.25632e-27
1.36148 5.0826e-27 7.60665e-27
0.569222 5.24819e-27 7.85448e-27
0.109675 5.3415e-27 7.99412e-27
5.08449 -1.84507e-27 -4.45439e-27
5.08599 -1.84479e-27 -4.45372e-27
5.09376 -1.84336e-27 -4.45026e-27
5.11621 -1.83921e-27 -4.44025e-27
5.1649 -1.83019e-27 -4.41848e-27
5.2537 -1.81366e-27 -4.37855e-27
5.3977 -1.78659e-27 -4.3132e-27
5.61178 -1.74575e-27 -4.21461e-27
5.90877 -1.68784e-27 -4.07481e-27
6.29748 -1.60968e-27 -3.88611e-27
6.7806 -1.50835e-27 -3.64148e-27
7.3528 -1.38137e-27 -3.33493e-27
7.99928 -1.22687e-27 -2.96193e-27
8.69501 -1.04367e-27 -2.51965e-27
9.40492 -8.31447e-28 -2.00729e-27
10.0853 -5.90769e-28 -1.42624e-27
10.686 -3.23168e-28 -7.80196e-28
11.1545 -3.11425e-29 -7.51847e-29
11.44 2.81864e-28 6.80479e-28
11.4981 6.11521e-28 1.47634e-27
11.2963 9.52708e-28 2.30004e-27
10.8179 1.29963e-27 3.13759e-27
10.0654 1.64598e-27 3.97375e-27
9.06254 1.9851e-27 4.79246e-27
7.85406 2.31019e-27 5.57729e-27
6.50373 2.61447e-27 6.31189e-27
5.09039 2.89143e-27 6.98053e-27
3.70236 3.13499e-27 7.56854e-27
2.43064 3.33972e-27 8.06279e-27
1.36148 3.50096e-27 8.45206e-27
0.569222 3.61502e-27 8.72743e-27
0.109675 3.67929e-27 8.88259e-27
5.08449 -9.40608e-28 -4.72876e-27
5.08599 -9.40467e-28 -4.72805e-27
5.09376 -9.39737e-28 -4.72437e-27
5.11621 -9.37622e-28 -4.71374e-27
5.1649 -9.33024e-28 -4.69063e-27
5.2537 -9.24594e-28 -4.64825e-27
5.3977 -9.10794e-28 -4.57887e-27
5.61178 -8.89974e-28 -4.4742e-27
5.90877 -8.60454e-28 -4.32579e-27
6.29748 -8.20608e-28 -4.12547e-27
6.7806 -7.6895e-28 -3.86577e-27
7.3528 -7.04218e-28 -3.54035e-27
7.99928 -6.25453e-28 -3.14436e-27
8.69501 -5.3206e-28 -2.67484e-27
9.40492 -4.23868e-28 -2.13093e-27
10.0853 -3.01171e-28 -1.51409e-27
10.686 -1.6475e-28 -8.28252e-28
11.1545 -1.58763e-29 -7.98157e-29
11.44 1.43693e-28 7.22393e-28
11.4981 3.11751e-28 1.56728e-27
11.2963 4.85686e-28 2.44171e-27
10.8179 6.62546e-28 3.33084e-27
10.0654 8.39114e-28 4.21851e-27
9.06254 1.012e-27 5.08765e-27
7.85406 1.17772e-27 5.92082e-27
6.50373 1.33284e-27 6.70066e-27
5.09039 1.47404e-27 7.41049e-27
3.70236 1.59821e-27 8.03472e-27
2.43064 1.70257e-27 8.55941e-27
1.36148 1.78477e-27 8.97265e-27
0.569222 1.84292e-27 9.26499e-27
0.109675 1.87569e-27 9.42971e-27
5.08449 -2.94707e-43 -4.8214e-27
5.08599 -2.92458e-43 -4.82068e-27
5.09376 -2.88283e-43 -4.81693e-27
5.11621 -2.81979e-43 -4.80609e-27
5.1649 -2.73271e-43 -4.78252e-27
5.2537 -2.61845e-43 -4.73931e-27
5.3977 -2.47373e-43 -4.66857e-27
5.61178 -2.29543e-43 -4.56186e-27
5.90877 -2.08091e-43 -4.41054e-27
6.29748 -1.82831e-43 -4.2063e-27
6.7806 -1.53676e-43 -3.94151e-27
7.3528 -1.20659e-43 -3.6097e-27
7.99928 -8.39434e-44 -3.20597e-27
8.69501 -4.38226e-44 -2.72725e-27
9.40492 -7.17361e-46 -2.17268e-27
10.0853 4.48388e-44 -1.54375e-27
10.686 9.22189e-44 -8.44479e-28
11.1545 1.40727e-43 -8.13793e-29
11.44 1.89626e-43 7.36546e-28
11.4981 2.38166e-43 1.59798e-27
11.2963 2.85614e-43 2.48955e-27
10.8179 3.31274e-43 3.3961e-27
10.0654 3.74515e-43 4.30116e-27
9.06254 4.14777e-43 5.18732e-27
7.85406 4.51588e-43 6.03681e-27
6.50373 4.84563e-43 6.83194e-27
5.09039 5.13401e-43 7.55567e-27
3.70236 5.37878e-43 8.19213e-27
2.43064 5.57836e-43 8.7271e-27
1.36148 5.73171e-43 9.14844e-27
0.569222 5.8382e-43 9.4465e-27
0.109675 5.89749e-43 9.61445e-27
5.08449 9.40608e-28 -4.72876e-27
5.08599 9.40467e-28 -4.72805e-27
5.09376 9.39737e-28 -4.72437e-27
5.11621 9.37622e-28 -4.71374e-27
5.1649 9.33024e-28 -4.69063e-27
5.2537 9.24594e-28 -4.64825e-27
5.3977 9.10794e-28 -4.57887e-27
5.61178 8.89974e-28 -4.4742e-27
5.90877 8.60454e-28 -4.32579e-27
6.29748 8.20608e-28 -4.12547e-27
6.7806 7.6895e-28 -3.86577e-27
7.3528 7.04218e-28 -3.54035e-27
7.99928 6.25453e-28 -3.14436e-27
8.69501 5.3206e-28 -2.67484e-27
9.40492 4.23868e-28 -2.13093e-27
10.0853 3.01171e-28 -1.51409e-27
10.686 1.6475e-28 -8.28252e-28
11.1545 1.58763e-29 -7.98157e-29
11.44 -1.43693e-28 7.22393e-28
11.4981 -3.11751e-28 1.56728e-27
11.2963 -4.85686e-28 2.44171e-27
10.8179 -6.62546e-28 3.33084e-27
10.0654 -8.39114e-28 4.21851e-27
9.06254 -1.012e-27 5.08765e-27
7.85406 -1.17772e-27 5.92082e-27
6.50373 -1.33284e-27 6.70066e-27
5.09039 -1.47404e-27 7.41049e-27
3.70236 -1.59821e-27 8.03472e-27
2.43064 -1.70257e-27 8.55941e-27
1.36148 -1.78477e-27 8.97265e-27
0.569222 -1.84292e-27 9.26499e-27
0.109675 -1.87569e-27 9.42971e-27
5.08449 1.84507e-27 -4.45439e-27
5.08599 1.84479e-27 -4.45372e-27
5.09376 1.84336e-27 -4.45026e-27
5.11621 1.83921e-27 -4.44025e-27
5.1649 1.83019e-27 -4.41848e-27
5.2537 1.81366e-27 -4.37855e-27
5.3977 1.78659e-27 -4.3132e-27
5.61178 1.74575e-27 -4.21461e-27
5.90877 1.68784e-27 -4.07481e-27
6.29748 1.60968e-27 -3.88611e-27
6.7806 1.50835e-27 -3.64148e-27
7.3528 1.38137e-27 -3.33493e-27
7.99928 1.22687e-27 -2.96193e-27
8.69501 1.04367e-27 -2.51965e-27
9.40492 8.31447e-28 -2.00729e-27
10.0853 5.90769e-28 -1.42624e-27
10.686 3.23168e-28 -7.80196e-28
11.1545 3.11425e-29 -7.51847e-29
11.44 -2.81864e-28 6.80479e-28
11.4981 -6.11521e-28 1.47634e-27
11.2963 -9.52708e-28 2.30004e-27
10.8179 -1.29963e-27 3.13759e-27
10.0654 -1.64598e-27 3.97375e-27
9.06254 -1.9851e-27 4.79246e-27
7.85406 -2.31019e-27 5.57729e-27
6.50373 -2.61447e-27 6.31189e-27
5.09039 -2.89143e-27 6.98053e-27
3.70236 -3.13499e-27 7.56854e-27
2.43064 -3.33972e-27 8.06279e-27
1.36148 -3.50096e-27 8.45206e-27
0.569222 -3.61502e-27 8.72743e-27
0.109675 -3.67929e-27 8.88259e-27
5.08449 2.67862e-27 -4.00885e-27
5.08599 2.67822e-27 -4.00824e-27
5.09376 2.67614e-27 -4.00513e-27
5.11621 2.67012e-27 -3.99612e-27
5.1649 2.65703e-27 -3.97652e-27
5.2537 2.63302e-27 -3.94059e-27
5.3977 2.59372e-27 -3.88178e-27
5.61178 2.53443e-27 -3.79304e-27
5.90877 2.45037e-27 -3.66723e-27
6.29748 2.33689e-27 -3.49741e-27
6.7806 2.18978e-27 -3.27724e-27
7.3528 2.00544e-27 -3.00136e-27
7.99928 1.78114e-27 -2.66566e-27
8.69501 1.51518e-27 -2.26762e-27
9.40492 1.20707e-27 -1.80651e-27
10.0853 8.57664e-28 -1.28358e-27
10.686 4.69167e-28 -7.02158e-28
11.1545 4.52119e-29 -6.76645e-29
11.44 -4.09203e-28 6.12415e-28
11.4981 -8.87792e-28 1.32867e-27
11.2963 -1.38312e-27 2.06998e-27
10.8179 -1.88677e-27 2.82375e-27
10.0654 -2.38959e-27 3.57628e-27
9.06254 -2.88192e-27 4.3131e-27
7.85406 -3.35387e-27 5.01942e-27
6.50373 -3.79562e-27 5.68055e-27
5.09039 -4.1977e-27 6.28231e-27
3.70236 -4.5513e-27 6.81151e-27
2.43064 -4.84852e-27 7.25632e-27
1.36148 -5.0826e-27 7.60665e-27
0.569222 -5.24819e-27 7.85448e-27
0.109675 -5.3415e-27 7.99412e-27
5.08449 3.40924e-27 -3.40924e-27
5.08599 3.40873e-27 -3.40873e-27
5.09376 3.40608e-27 -3.40608e-27
5.11621 3.39842e-27 -3.39842e-27
5.1649 3.38176e-27 -3.38176e-27
5.2537 3.3512e-27 -3.3512e-27
5.3977 3.30118e-27 -3.30118e-27
5.61178 3.22572e-27 -3.22572e-27
5.90877 3.11872e-27 -3.11872e-27
6.29748 2.9743e-27 -2.9743e-27
6.7806 2.78707e-27 -2.78707e-27
7.3528 2.55245e-27 -2.55245e-27
7.99928 2.26696e-27 -2.26696e-27
8.69501 1.92845e-27 -1.92845e-27
9.40492 1.53631e-27 -1.53631e-27
10.0853 1.0916e-27 -1.0916e-27
10.686 5.97136e-28 -5.97136e-28
11.1545 5.75439e-29 -5.75439e-29
11.44 -5.20816e-28 5.20816e-28
11.4981 -1.12994e-27 1.12994e-27
11.2963 -1.76037e-27 1.76037e-27
10.8179 -2.4014e-27 2.4014e-27
10.0654 -3.04138e-27 3.04138e-27
9.06254 -3.66799e-27 3.66799e-27
7.85406 -4.26867e-27 4.26867e-27
6.50373 -4.83091e-27 4.83091e-27
5.09039 -5.34266e-27 5.34266e-27
3.70236 -5.79271e-27 5.79271e-27
2.43064 -6.17099e-27 6.17099e-27
1.36148 -6.46892e-27 6.46892e-27
0.569222 -6.67968e-27 6.67968e-27
0.109675 -6.79844e-27 6.79844e-27
5.08449 4.00885e-27 -2.67862e-27
5.08599 4.00824e-27 -2.67822e-27
5.09376 4.00513e-27 -2.67614e-27
5.11621 3.99612e-27 -2.67012e-27
5.1649 3.97652e-27 -2.65703e-27
5.2537 3.94059e-27 -2.63302e-27
5.3977 3.88178e-27 -2.59372e-27
5.61178 3.79304e-27 -2.53443e-27
5.90877 3.66723e-27 -2.45037e-27
6.29748 3.49741e-27 -2.33689e-27
6.7806 3.27724e-27 -2.18978e-27
7.3528 3.00136e-27 -2.00544e-27
7.99928 2.66566e-27 -1.78114e-27
8.69501 2.26762e-27 -1.51518e-27
9.40492 1.80651e-27 -1.20707e-27
10.0853 1.28358e-27 -8.57664e-28
10.686 7.02158e-28 -4.69167e-28
11.1545 6.76645e-29 -4.52119e-29
11.44 -6.12415e-28 4.09203e-28
11.4981 -1.32867e-27 8.87792e-28
11.2963 -2.06998e-27 1.38312e-27
10.8179 -2.82375e-27 1.88677e-27
10.0654 -3.57628e-27 2.38959e-27
9.06254 -4.3131e-27 2.88192e-27
7.85406 -5.01942e-27 3.35387e-27
6.50373 -5.68055e-27 3.79562e-27
5.09039 -6.28231e-27 4.1977e-27
3.70236 -6.81151e-27 4.5513e-27
2.43064 -7.25632e-27 4.84852e-27
1.36148 -7.60665e-27 5.0826e-27
0.569222 -7.85448e-27 5.24819e-27
0.109675 -7.99412e-27 5.3415e-27
5.08449 4.45439e-27 -1.84507e-27
5.08599 4.45372e-27 -1.84479e-27
5.09376 4.45026e-27 -1.84336e-27
5.11621 4.44025e-27 -1.83921e-27
5.1649 4.41848e-27 -1.83019e-27
5.2537 4.37855e-27 -1.81366e-27
5.3977 4.3132e-27 -1.78659e-27
5.61178 4.21461e-27 -1.74575e-27
5.90877 4.07481e-27 -1.68784e-27
6.29748 3.88611e-27 -1.60968e-27
6.7806 3.64148e-27 -1.50835e-27
7.3528 3.33493e-27 -1.38137e-27
7.99928 2.96193e-27 -1.22687e-27
8.69501 2.51965e-27 -1.04367e-27
9.40492 2.00729e-27 -8.31447e-28
10.0853 1.42624e-27 -5.90769e-28
10.686 7.80196e-28 -3.23168e-28
11.1545 7.51847e-29 -3.11425e-29
11.44 -6.80479e-28 2.81864e-28
11.4981 -1.47634e-27 6.11521e-28
11.2963 -2.30004e-27 9.52708e-28
10.8179 -3.13759e-27 1.29963e-27
10.0654 -3.97375e-27 1.64598e-27
9.06254 -4.79246e-27 1.9851e-27
7.85406 -5.57729e-27 2.31019e-27
6.50373 -6.31189e-27 2.61447e-27
5.09039 -6.98053e-27 2.89143e-27
3.70236 -7.56854e-27 3.13499e-27
2.43064 -8.06279e-27 3.33972e-27
1.36148 -8.45206e-27 3.50096e-27
0.569222 -8.72743e-27 3.61502e-27
0.109675 -8.88259e-27 3.67929e-27
5.08449 4.72876e-27 -9.40608e-28
5.08599 4.72805e-27 -9.40467e-28
5.09376 4.72437e-27 -9.39737e-28
5.11621 4.71374e-27 -9.37622e-28
5.1649 4.69063e-27 -9.33024e-28
5.2537 4.64825e-27 -9.24594e-28
5.3977 4.57887e-27 -9.10794e-28
5.61178 4.4742e-27 -8.89974e-28
5.90877 4.32579e-27 -8.60454e-28
6.29748 4.12547e-27 -8.20608e-28
6.7806 3.86577e-27 -7.6895e-28
7.3528 3.54035e-27 -7.04218e-28
7.99928 3.14436e-27 -6.25453e-28
8.69501 2.67484e-27 -5.3206e-28
9.40492 2.13093e-27 -4.23868e-28
10.0853 1.51409e-27 -3.01171e-28
10.686 8.28252e-28 -1.6475e-28
11.1545 7.98157e-29 -1.58763e-29
11.44 -7.22393e-28 1.43693e-28
11.4981 -1.56728e-27 3.11751e-28
11.2963 -2.44171e-27 4.85686e-28
10.8179 -3.33084e-27 6.62546e-28
10.0654 -4.21851e-27 8.39114e-28
9.06254 -5.08765e-27 1.012e-27
7.85406 -5.92082e-27 1.17772e-27
6.50373 -6.70066e-27 1.33284e-27
5.09039 -7.41049e-27 1.47404e-27
3.70236 -8.03472e-27 1.59821e-27
2.43064 -8.55941e-27 1.70257e-27
1.36148 -8.97265e-27 1.78477e-27
0.569222 -9.26499e-27 1.84292e-27
0.109675 -9.42971e-27 1.87569e-27
5.08449 4.8214e-27 -5.90402e-43
5.08599 4.82068e-27 -5.90104e-43
5.09376 4.81693e-27 -5.89271e-43
5.11621 4.80609e-27 -5.87408e-43
5.1649 4.78252e-27 -5.83832e-43
5.2537 4.73931e-27 -5.77707e-43
5.3977 4.66857e-27 -5.68081e-43
5.61178 4.56186e-27 -5.53939e-43
5.90877 4.41054e-27 -5.34252e-43
6.29748 4.2063e-27 -5.08028e-43
6.7806 3.94151e-27 -4.74372e-43
7.3528 3.6097e-27 -4.32532e-43
7.99928 3.20597e-27 -3.8195e-43
8.69501 2.72725e-27 -3.22298e-43
9.40492 2.17268e-27 -2.53514e-43
10.0853 1.54375e-27 -1.75824e-43
10.686 8.44479e-28 -8.97549e-44
11.1545 8.13793e-29 3.86698e-45
11.44 -7.36546e-28 1.03921e-43
11.4981 -1.59798e-27 2.09018e-43
11.2963 -2.48955e-27 3.17524e-43
10.8179 -3.3961e-27 4.2761e-43
10.0654 -4.30116e-27 5.37291e-43
9.06254 -5.18732e-27 6.44486e-43
7.85406 -6.03681e-27 7.47075e-43
6.50373 -6.83194e-27 8.42958e-43
5.09039 -7.55567e-27 9.3012e-43
3.70236 -8.19213e-27 1.00669e-42
2.43064 -8.7271e-27 1.07099e-42
1.36148 -9.14844e-27 1.12159e-42
0.569222 -9.4465e-27 1.15737e-42
0.109675 -9.61445e-27 1.17753e-42
5.08449 4.72876e-27 9.40608e-28
5.08599 4.72805e-27 9.40467e-28
5.09376 4.72437e-27 9.39737e-28
5.11621 4.71374e-27 9.37622e-28
5.1649 4.69063e-27 9.33024e-28
5.2537 4.64825e-27 9.24594e-28
5.3977 4.57887e-27 9.10794e-28
5.61178 4.4742e-27 8.89974e-28
5.90877 4.32579e-27 8.60454e-28
6.29748 4.12547e-27 8.20608e-28
6.7806 3.86577e-27 7.6895e-28
7.3528 3.54035e-27 7.04218e-28
7.99928 3.14436e-27 6.25453e-28
8.69501 2.67484e-27 5.3206e-28
9.40492 2.13093e-27 4.23868e-28
10.0853 1.51409e-27 3.01171e-28
10.686 8.28252e-28 1.6475e-28
11.1545 7.98157e-29 1.58763e-29
11.44 -7.22393e-28 -1.43693e-28
11.4981 -1.56728e-27 -3.11751e-28
11.2963 -2.44171e-27 -4.85686e-28
10.8179 -3.33084e-27 -6.62546e-28
10.0654 -4.21851e-27 -8.39114e-28
9.06254 -5.08765e-27 -1.012e-27
7.85406 -5.92082e-27 -1.17772e-27
6.50373 -6.70066e-27 -1.33284e-27
5.09039 -7.41049e-27 -1.47404e-27
3.70236 -8.03472e-27 -1.59821e-27
2.43064 -8.55941e-27 -1.70257e-27
1.36148 -8.97265e-27 -1.78477e-27
0.569222 -9.26499e-27 -1.84292e-27
0.109675 -9.42971e-27 -1.87569e-27
5.08449 4.45439e-27 1.84507e-27
5.08599 4.45372e-27 1.84479e-27
5.09376 4.45026e-27 1.84336e-27
5.11621 4.44025e-27 1.83921e-27
5.1649 4.41848e-27 1.83019e-27
5.2537 4.37855e-27 1.81366e-27
5.3977 4.3132e-27 1.78659e-27
5.61178 4.21461e-27 1.74575e-27
5.90877 4.07481e-27 1.68784e-27
6.29748 3.88611e-27 1.60968e-27
6.7806 3.64148e-27 1.50835e-27
7.3528 3.33493e-27 1.38137e-27
7.99928 2.96193e-27 1.22687e-27
8.69501 2.51965e-27 1.04367e-27
9.40492 2.00729e-27 8.31447e-28
10.0853 1.42624e-27 5.90769e-28