# vtk DataFile Version 3.0
LifeV output
ASCII
DATASET UNSTRUCTURED_GRID
POINTS 25600 float
0 0.000684035 0
0 0.00359712 0
0 0.00880944 0
0 0.0162735 0
0 0.0259197 0
0 0.0376581 0
0 0.0513791 0
0 0.0669545 0
0 0.0842389 0
0 0.103071 0
0 0.123275 0
0 0.144662 0
0 0.167033 0
0 0.190178 0
0 0.213882 0
0 0.237923 0
0 0.262077 0
0 0.286118 0
0 0.309822 0
0 0.332967 0
0 0.355338 0
0 0.376725 0
0 0.396929 0
0 0.415761 0
0 0.433046 0
0 0.448621 0
0 0.462342 0
0 0.47408 0
0 0.483727 0
0 0.491191 0
0 0.496403 0
0 0.499316 0
0 0.000670891 0.000133449
0 0.003528 0.000701764
0 0.00864017 0.00171864
0 0.0159608 0.0031748
0 0.0254217 0.00505668
0 0.0369345 0.00734673
0 0.0503918 0.0100236
0 0.065668 0.0130622
0 0.0826203 0.0164342
0 0.101091 0.0201082
0 0.120906 0.0240498
0 0.141883 0.0282222
0 0.163823 0.0325865
0 0.186524 0.0371019
0 0.209772 0.0417263
0 0.233351 0.0464165
0 0.257041 0.0511287
0 0.28062 0.0558189
0 0.303869 0.0604432
0 0.326569 0.0649587
0 0.34851 0.069323
0 0.369486 0.0734954
0 0.389302 0.077437
0 0.407772 0.081111
0 0.424725 0.084483
0 0.440001 0.0875216
0 0.453458 0.0901984
0 0.464971 0.0924885
0 0.474432 0.0943704
0 0.481752 0.0958265
0 0.486865 0.0968434
0 0.489722 0.0974117
0 0.000631966 0.000261769
0 0.00332331 0.00137656
0 0.00813886 0.00337123
0 0.0150347 0.00622759
0 0.0239467 0.00991904
0 0.0347915 0.0144111
0 0.0474681 0.0196619
0 0.0618579 0.0256224
0 0.0778266 0.0322368
0 0.0952252 0.0394436
0 0.113891 0.0471753
0 0.13365 0.0553598
0 0.154318 0.0639207
0 0.175702 0.072778
0 0.197601 0.0818491
0 0.219812 0.0910492
0 0.242127 0.100292
0 0.264339 0.109493
0 0.286238 0.118564
0 0.307622 0.127421
0 0.328289 0.135982
0 0.348048 0.144166
0 0.366715 0.151898
0 0.384113 0.159105
0 0.400082 0.165719
0 0.414472 0.17168
0 0.427148 0.176931
0 0.437993 0.181423
0 0.446905 0.185114
0 0.453801 0.18797
0 0.458616 0.189965
0 0.461308 0.19108
0 0.000568754 0.000380029
0 0.0029909 0.00199845
0 0.00732478 0.00489426
0 0.0135309 0.00904106
0 0.0215515 0.0144002
0 0.0313116 0.0209217
0 0.0427201 0.0285447
0 0.0556706 0.0371979
0 0.0700421 0.0468006
0 0.0857005 0.0572632
0 0.102499 0.0684879
0 0.120282 0.08037
0 0.138883 0.0927985
0 0.158127 0.105657
0 0.177836 0.118826
0 0.197826 0.132183
0 0.217909 0.145602
0 0.237898 0.158959
0 0.257607 0.172128
0 0.276852 0.184987
0 0.295453 0.197415
0 0.313235 0.209297
0 0.330034 0.220522
0 0.345693 0.230984
0 0.360064 0.240587
0 0.373015 0.24924
0 0.384423 0.256863
0 0.394183 0.263385
0 0.402204 0.268744
0 0.40841 0.272891
0 0.412744 0.275787
0 0.415166 0.277405
0 0.000483685 0.000483685
0 0.00254355 0.00254355
0 0.00622921 0.00622921
0 0.0115071 0.0115071
0 0.018328 0.018328
0 0.0266283 0.0266283
0 0.0363305 0.0363305
0 0.047344 0.047344
0 0.0595659 0.0595659
0 0.0728822 0.0728822
0 0.0871686 0.0871686
0 0.102292 0.102292
0 0.11811 0.11811
0 0.134476 0.134476
0 0.151237 0.151237
0 0.168237 0.168237
0 0.185316 0.185316
0 0.202316 0.202316
0 0.219077 0.219077
0 0.235443 0.235443
0 0.251262 0.251262
0 0.266385 0.266385
0 0.280671 0.280671
0 0.293987 0.293987
0 0.306209 0.306209
0 0.317223 0.317223
0 0.326925 0.326925
0 0.335225 0.335225
0 0.342046 0.342046
0 0.347324 0.347324
0 0.35101 0.35101
0 0.35307 0.35307
0 0.000380029 0.000568754
0 0.00199845 0.0029909
0 0.00489426 0.00732478
0 0.00904106 0.0135309
0 0.0144002 0.0215515
0 0.0209217 0.0313116
0 0.0285447 0.0427201
0 0.0371979 0.0556706
0 0.0468006 0.0700421
0 0.0572632 0.0857005
0 0.0684879 0.102499
0 0.08037 0.120282
0 0.0927985 0.138883
0 0.105657 0.158127
0 0.118826 0.177836
0 0.132183 0.197826
0 0.145602 0.217909
0 0.158959 0.237898
0 0.172128 0.257607
0 0.184987 0.276852
0 0.197415 0.295453
0 0.209297 0.313235
0 0.220522 0.330034
0 0.230984 0.345693
0 0.240587 0.360064
0 0.24924 0.373015
0 0.256863 0.384423
0 0.263385 0.394183
0 0.268744 0.402204
0 0.272891 0.40841
0 0.275787 0.412744
0 0.277405 0.415166
0 0.000261769 0.000631966
0 0.00137656 0.00332331
0 0.00337123 0.00813886
0 0.00622759 0.0150347
0 0.00991904 0.0239467
0 0.0144111 0.0347915
0 0.0196619 0.0474681
0 0.0256224 0.0618579
0 0.0322368 0.0778266
0 0.0394436 0.0952252
0 0.0471753 0.113891
0 0.0553598 0.13365
0 0.0639207 0.154318
0 0.072778 0.175702
0 0.0818491 0.197601
0 0.0910492 0.219812
0 0.100292 0.242127
0 0.109493 0.264339
0 0.118564 0.286238
0 0.127421 0.307622
0 0.135982 0.328289
0 0.144166 0.348048
0 0.151898 0.366715
0 0.159105 0.384113
0 0.165719 0.400082
0 0.17168 0.414472
0 0.176931 0.427148
0 0.181423 0.437993
0 0.185114 0.446905
0 0.18797 0.453801
0 0.189965 0.458616
0 0.19108 0.461308
0 0.000133449 0.000670891
0 0.000701764 0.003528
0 0.00171864 0.00864017
0 0.0031748 0.0159608
0 0.00505668 0.0254217
0 0.00734673 0.0369345
0 0.0100236 0.0503918
0 0.0130622 0.065668
0 0.0164342 0.0826203
0 0.0201082 0.101091
0 0.0240498 0.120906
0 0.0282222 0.141883
0 0.0325865 0.163823
0 0.0371019 0.186524
0 0.0417263 0.209772
0 0.0464165 0.233351
0 0.0511287 0.257041
0 0.0558189 0.28062
0 0.0604432 0.303869
0 0.0649587 0.326569
0 0.069323 0.34851
0 0.0734954 0.369486
0 0.077437 0.389302
0 0.081111 0.407772
0 0.084483 0.424725
0 0.0875216 0.440001
0 0.0901984 0.453458
0 0.0924885 0.464971
0 0.0943704 0.474432
0 0.0958265 0.481752
0 0.0968434 0.486865
0 0.0974117 0.489722
0 4.1885e-20 0.000684035
0 2.2026e-19 0.00359712
0 5.39422e-19 0.00880944
0 9.96463e-19 0.0162735
0 1.58712e-18 0.0259197
0 2.30589e-18 0.0376581
0 3.14606e-18 0.0513791
0 4.09978e-18 0.0669545
0 5.15815e-18 0.0842389
0 6.31128e-18 0.103071
0 7.54842e-18 0.123275
0 8.858e-18 0.144662
0 1.02278e-17 0.167033
0 1.16451e-17 0.190178
0 1.30965e-17 0.213882
0 1.45686e-17 0.237923
0 1.60476e-17 0.262077
0 1.75197e-17 0.286118
0 1.89711e-17 0.309822
0 2.03884e-17 0.332967
0 2.17582e-17 0.355338
0 2.30678e-17 0.376725
0 2.43049e-17 0.396929
0 2.5458e-17 0.415761
0 2.65164e-17 0.433046
0 2.74701e-17 0.448621
0 2.83103e-17 0.462342
0 2.9029e-17 0.47408
0 2.96197e-17 0.483727
0 3.00767e-17 0.491191
0 3.03959e-17 0.496403
0 3.05743e-17 0.499316
0 -0.000133449 0.000670891
0 -0.000701764 0.003528
0 -0.00171864 0.00864017
0 -0.0031748 0.0159608
0 -0.00505668 0.0254217
0 -0.00734673 0.0369345
0 -0.0100236 0.0503918
0 -0.0130622 0.065668
0 -0.0164342 0.0826203
0 -0.0201082 0.101091
0 -0.0240498 0.120906
0 -0.0282222 0.141883
0 -0.0325865 0.163823
0 -0.0371019 0.186524
0 -0.0417263 0.209772
0 -0.0464165 0.233351
0 -0.0511287 0.257041
0 -0.0558189 0.28062
0 -0.0604432 0.303869
0 -0.0649587 0.326569
0 -0.069323 0.34851
0 -0.0734954 0.369486
0 -0.077437 0.389302
0 -0.081111 0.407772
0 -0.084483 0.424725
0 -0.0875216 0.440001
0 -0.0901984 0.453458
0 -0.0924885 0.464971
0 -0.0943704 0.474432
0 -0.0958265 0.481752
0 -0.0968434 0.486865
0 -0.0974117 0.489722
0 -0.000261769 0.000631966
0 -0.00137656 0.00332331
0 -0.00337123 0.00813886
0 -0.00622759 0.0150347
0 -0.00991904 0.0239467
0 -0.0144111 0.0347915
0 -0.0196619 0.0474681
0 -0.0256224 0.0618579
0 -0.0322368 0.0778266
0 -0.0394436 0.0952252
0 -0.0471753 0.113891
0 -0.0553598 0.13365
0 -0.0639207 0.154318
0 -0.072778 0.175702
0 -0.0818491 0.197601
0 -0.0910492 0.219812
0 -0.100292 0.242127
0 -0.109493 0.264339
0 -0.118564 0.286238
0 -0.127421 0.307622
0 -0.135982 0.328289
0 -0.144166 0.348048
0 -0.151898 0.366715
0 -0.159105 0.384113
0 -0.165719 0.400082
0 -0.17168 0.414472
0 -0.176931 0.427148
0 -0.181423 0.437993
0 -0.185114 0.446905
0 -0.18797 0.453801
0 -0.189965 0.458616
0 -0.19108 0.461308
0 -0.000380029 0.000568754
0 -0.00199845 0.0029909
0 -0.00489426 0.00732478
0 -0.00904106 0.0135309
0 -0.0144002 0.0215515
0 -0.0209217 0.0313116
0 -0.0285447 0.0427201
0 -0.0371979 0.0556706
0 -0.0468006 0.0700421
0 -0.0572632 0.0857005
0 -0.0684879 0.102499
0 -0.08037 0.120282
0 -0.0927985 0.138883
0 -0.105657 0.158127
0 -0.118826 0.177836
0 -0.132183 0.197826
0 -0.145602 0.217909
0 -0.158959 0.237898
0 -0.172128 0.257607
0 -0.184987 0.276852
0 -0.197415 0.295453
0 -0.209297 0.313235
0 -0.220522 0.330034
0 -0.230984 0.345693
0 -0.240587 0.360064
0 -0.24924 0.373015
0 -0.256863 0.384423
0 -0.263385 0.394183
0 -0.268744 0.402204
0 -0.272891 0.40841
0 -0.275787 0.412744
0 -0.277405 0.415166
0 -0.000483685 0.000483685
0 -0.00254355 0.00254355
0 -0.00622921 0.00622921
0 -0.0115071 0.0115071
0 -0.018328 0.018328
0 -0.0266283 0.0266283
0 -0.0363305 0.0363305
0 -0.047344 0.047344
0 -0.0595659 0.0595659
0 -0.0728822 0.0728822
0 -0.0871686 0.0871686
0 -0.102292 0.102292
0 -0.11811 0.11811
0 -0.134476 0.134476
0 -0.151237 0.151237
0 -0.168237 0.168237
0 -0.185316 0.185316
0 -0.202316 0.202316
0 -0.219077 0.219077
0 -0.235443 0.235443
0 -0.251262 0.251262
0 -0.266385 0.266385
0 -0.280671 0.280671
0 -0.293987 0.293987
0 -0.306209 0.306209
0 -0.317223 0.317223
0 -0.326925 0.326925
0 -0.335225 0.335225
0 -0.342046 0.342046
0 -0.347324 0.347324
0 -0.35101 0.35101
0 -0.35307 0.35307
0 -0.000568754 0.000380029
0 -0.0029909 0.00199845
0 -0.00732478 0.00489426
0 -0.0135309 0.00904106
0 -0.0215515 0.0144002
0 -0.0313116 0.0209217
0 -0.0427201 0.0285447
0 -0.0556706 0.0371979
0 -0.0700421 0.0468006
0 -0.0857005 0.0572632
0 -0.102499 0.0684879
0 -0.120282 0.08037
0 -0.138883 0.0927985
0 -0.158127 0.105657
0 -0.177836 0.118826
0 -0.197826 0.132183
0 -0.217909 0.145602
0 -0.237898 0.158959
0 -0.257607 0.172128
0 -0.276852 0.184987
0 -0.295453 0.197415
0 -0.313235 0.209297
0 -0.330034 0.220522
0 -0.345693 0.230984
0 -0.360064 0.240587
0 -0.373015 0.24924
0 -0.384423 0.256863
0 -0.394183 0.263385
0 -0.402204 0.268744
0 -0.40841 0.272891
0 -0.412744 0.275787
0 -0.415166 0.277405
0 -0.000631966 0.000261769
0 -0.00332331 0.00137656
0 -0.00813886 0.00337123
0 -0.0150347 0.00622759
0 -0.0239467 0.00991904
0 -0.0347915 0.0144111
0 -0.0474681 0.0196619
0 -0.0618579 0.0256224
0 -0.0778266 0.0322368
0 -0.0952252 0.0394436
0 -0.113891 0.0471753
0 -0.13365 0.0553598
0 -0.154318 0.0639207
0 -0.175702 0.072778
0 -0.197601 0.0818491
0 -0.219812 0.0910492
0 -0.242127 0.100292
0 -0.264339 0.109493
0 -0.286238 0.118564
0 -0.307622 0.127421
0 -0.328289 0.135982
0 -0.348048 0.144166
0 -0.366715 0.151898
[...]
POINT_DATA 25600
FIELD FieldData 1
Velocity 3 25600 double
5.10656 -1.59884e-27 -1.18066e-47
5.10804 -1.5986e-27 -6.20841e-47
5.11573 -1.59736e-27 -1.52006e-46
5.13794 -1.59377e-27 -2.80587e-46
5.18611 -1.58596e-27 -4.46179e-46
5.27395 -1.57165e-27 -6.46302e-46
5.41639 -1.54823e-27 -8.77452e-46
5.62815 -1.51288e-27 -1.13493e-45
5.92191 -1.46277e-27 -1.41272e-45
6.30636 -1.39512e-27 -1.70344e-45
6.78414 -1.30743e-27 -1.99842e-45
7.34993 -1.19754e-27 -2.2879e-45
7.98904 -1.06382e-27 -2.56129e-45
8.67664 -9.05274e-28 -2.80764e-45
9.37796 -7.21605e-28 -3.01615e-45
10.0496 -5.13311e-28 -3.17676e-45
10.642 -2.81716e-28 -3.28074e-45
11.1031 -2.89843e-29 -3.32135e-45
11.3824 2.41906e-28 -3.29435e-45
11.4361 5.27207e-28 -3.19844e-45
11.232 8.22485e-28 -3.03558e-45
10.7535 1.12273e-27 -2.81106e-45
10.0034 1.42248e-27 -2.53347e-45
9.00513 1.71597e-27 -2.21435e-45
7.80316 1.99731e-27 -1.86777e-45
6.46079 2.26065e-27 -1.50961e-45
5.05628 2.50034e-27 -1.1568e-45
3.67727 2.71113e-27 -8.26389e-46
2.41401 2.88831e-27 -5.34641e-46
1.35211 3.02786e-27 -2.96117e-46
0.565285 3.12657e-27 -1.22838e-46
0.108914 3.18219e-27 -2.35648e-47
5.10656 -1.56812e-27 -3.11918e-28
5.10804 -1.56788e-27 -3.11871e-28
5.11573 -1.56667e-27 -3.11629e-28
5.13794 -1.56315e-27 -3.10929e-28
5.18611 -1.55549e-27 -3.09406e-28
5.27395 -1.54145e-27 -3.06614e-28
5.41639 -1.51848e-27 -3.02044e-28
5.62815 -1.48381e-27 -2.95149e-28
5.92191 -1.43466e-27 -2.85372e-28
6.30636 -1.36832e-27 -2.72175e-28
6.78414 -1.2823e-27 -2.55066e-28
7.34993 -1.17453e-27 -2.33628e-28
7.98904 -1.04338e-27 -2.07541e-28
8.67664 -8.87879e-28 -1.7661e-28
9.37796 -7.07739e-28 -1.40778e-28
10.0496 -5.03448e-28 -1.00142e-28
10.642 -2.76303e-28 -5.49602e-29
11.1031 -2.84274e-29 -5.65456e-30
11.3824 2.37258e-28 4.71935e-29
11.4361 5.17076e-28 1.02853e-28
11.232 8.06681e-28 1.60459e-28
10.7535 1.10116e-27 2.19033e-28
10.0034 1.39514e-27 2.77511e-28
9.00513 1.683e-27 3.34769e-28
7.80316 1.95893e-27 3.89656e-28
6.46079 2.21721e-27 4.41031e-28
5.05628 2.4523e-27 4.87793e-28
3.67727 2.65904e-27 5.28916e-28
2.41401 2.83281e-27 5.63481e-28
1.35211 2.96968e-27 5.90705e-28
0.565285 3.06649e-27 6.09964e-28
0.108914 3.12105e-27 6.20815e-28
5.10656 -1.47713e-27 -6.11849e-28
5.10804 -1.47691e-27 -6.11758e-28
5.11573 -1.47577e-27 -6.11283e-28
5.13794 -1.47245e-27 -6.09909e-28
5.18611 -1.46524e-27 -6.06922e-28
5.27395 -1.45202e-27 -6.01446e-28
5.41639 -1.43037e-27 -5.9248e-28
5.62815 -1.39772e-27 -5.78955e-28
5.92191 -1.35142e-27 -5.59777e-28
6.30636 -1.28893e-27 -5.3389e-28
6.78414 -1.2079e-27 -5.0033e-28
7.34993 -1.10638e-27 -4.58277e-28
7.98904 -9.82843e-28 -4.07107e-28
8.67664 -8.36364e-28 -3.46433e-28
9.37796 -6.66676e-28 -2.76146e-28
10.0496 -4.74237e-28 -1.96436e-28
10.642 -2.60272e-28 -1.07808e-28
11.1031 -2.6778e-29 -1.10918e-29
11.3824 2.23492e-28 9.25733e-29
11.4361 4.87075e-28 2.01753e-28
11.232 7.59877e-28 3.14751e-28
10.7535 1.03727e-27 4.29649e-28
10.0034 1.3142e-27 5.44358e-28
9.00513 1.58535e-27 6.56672e-28
7.80316 1.84527e-27 7.64337e-28
6.46079 2.08857e-27 8.65113e-28
5.05628 2.31002e-27 9.5684e-28
3.67727 2.50476e-27 1.03751e-27
2.41401 2.66845e-27 1.10531e-27
1.35211 2.79737e-27 1.15871e-27
0.565285 2.88857e-27 1.19649e-27
0.108914 2.93996e-27 1.21777e-27
5.10656 -1.32939e-27 -8.88267e-28
5.10804 -1.32919e-27 -8.88135e-28
5.11573 -1.32816e-27 -8.87446e-28
5.13794 -1.32517e-27 -8.85451e-28
5.18611 -1.31868e-27 -8.81115e-28
5.27395 -1.30678e-27 -8.73164e-28
5.41639 -1.2873e-27 -8.60148e-28
5.62815 -1.25791e-27 -8.40512e-28
5.92191 -1.21625e-27 -8.1267e-28
6.30636 -1.16e-27 -7.75089e-28
6.78414 -1.08709e-27 -7.26367e-28
7.34993 -9.95715e-28 -6.65316e-28
7.98904 -8.84535e-28 -5.91028e-28
8.67664 -7.52708e-28 -5.02943e-28
9.37796 -5.99992e-28 -4.00902e-28
10.0496 -4.26802e-28 -2.8518e-28
10.642 -2.34239e-28 -1.56513e-28
11.1031 -2.40996e-29 -1.61028e-29
11.3824 2.01137e-28 1.34396e-28
11.4361 4.38356e-28 2.929e-28
11.232 6.83871e-28 4.56948e-28
10.7535 9.33514e-28 6.23754e-28
10.0034 1.18274e-27 7.90285e-28
9.00513 1.42677e-27 9.5334e-28
7.80316 1.6607e-27 1.10965e-27
6.46079 1.87966e-27 1.25595e-27
5.05628 2.07896e-27 1.38912e-27
3.67727 2.25423e-27 1.50623e-27
2.41401 2.40154e-27 1.60466e-27
1.35211 2.51757e-27 1.68219e-27
0.565285 2.59965e-27 1.73703e-27
0.108914 2.6459e-27 1.76793e-27
5.10656 -1.13055e-27 -1.13055e-27
5.10804 -1.13038e-27 -1.13038e-27
5.11573 -1.1295e-27 -1.1295e-27
5.13794 -1.12697e-27 -1.12697e-27
5.18611 -1.12145e-27 -1.12145e-27
5.27395 -1.11133e-27 -1.11133e-27
5.41639 -1.09476e-27 -1.09476e-27
5.62815 -1.06977e-27 -1.06977e-27
5.92191 -1.03433e-27 -1.03433e-27
6.30636 -9.86501e-28 -9.86501e-28
6.78414 -9.2449e-28 -9.2449e-28
7.34993 -8.46786e-28 -8.46786e-28
7.98904 -7.52235e-28 -7.52235e-28
8.67664 -6.40125e-28 -6.40125e-28
9.37796 -5.10252e-28 -5.10252e-28
10.0496 -3.62965e-28 -3.62965e-28
10.642 -1.99204e-28 -1.99204e-28
11.1031 -2.0495e-29 -2.0495e-29
11.3824 1.71053e-28 1.71053e-28
11.4361 3.72791e-28 3.72791e-28
11.232 5.81585e-28 5.81585e-28
10.7535 7.93889e-28 7.93889e-28
10.0034 1.00584e-27 1.00584e-27
9.00513 1.21337e-27 1.21337e-27
7.80316 1.41231e-27 1.41231e-27
6.46079 1.59852e-27 1.59852e-27
5.05628 1.76801e-27 1.76801e-27
3.67727 1.91706e-27 1.91706e-27
2.41401 2.04234e-27 2.04234e-27
1.35211 2.14102e-27 2.14102e-27
0.565285 2.21082e-27 2.21082e-27
0.108914 2.25015e-27 2.25015e-27
5.10656 -8.88267e-28 -1.32939e-27
5.10804 -8.88135e-28 -1.32919e-27
5.11573 -8.87446e-28 -1.32816e-27
5.13794 -8.85451e-28 -1.32517e-27
5.18611 -8.81115e-28 -1.31868e-27
5.27395 -8.73164e-28 -1.30678e-27
5.41639 -8.60148e-28 -1.2873e-27
5.62815 -8.40512e-28 -1.25791e-27
5.92191 -8.1267e-28 -1.21625e-27
6.30636 -7.75089e-28 -1.16e-27
6.78414 -7.26367e-28 -1.08709e-27
7.34993 -6.65316e-28 -9.95715e-28
7.98904 -5.91028e-28 -8.84535e-28
8.67664 -5.02943e-28 -7.52708e-28
9.37796 -4.00902e-28 -5.99992e-28
10.0496 -2.8518e-28 -4.26802e-28
10.642 -1.56513e-28 -2.34239e-28
11.1031 -1.61028e-29 -2.40996e-29
11.3824 1.34396e-28 2.01137e-28
11.4361 2.929e-28 4.38356e-28
11.232 4.56948e-28 6.83871e-28
10.7535 6.23754e-28 9.33514e-28
10.0034 7.90285e-28 1.18274e-27
9.00513 9.5334e-28 1.42677e-27
7.80316 1.10965e-27 1.6607e-27
6.46079 1.25595e-27 1.87966e-27
5.05628 1.38912e-27 2.07896e-27
3.67727 1.50623e-27 2.25423e-27
2.41401 1.60466e-27 2.40154e-27
1.35211 1.68219e-27 2.51757e-27
0.565285 1.73703e-27 2.59965e-27
0.108914 1.76793e-27 2.6459e-27
5.10656 -6.11849e-28 -1.47713e-27
5.10804 -6.11758e-28 -1.47691e-27
5.11573 -6.11283e-28 -1.47577e-27
5.13794 -6.09909e-28 -1.47245e-27
5.18611 -6.06922e-28 -1.46524e-27
5.27395 -6.01446e-28 -1.45202e-27
5.41639 -5.9248e-28 -1.43037e-27
5.62815 -5.78955e-28 -1.39772e-27
5.92191 -5.59777e-28 -1.35142e-27
6.30636 -5.3389e-28 -1.28893e-27
6.78414 -5.0033e-28 -1.2079e-27
7.34993 -4.58277e-28 -1.10638e-27
7.98904 -4.07107e-28 -9.82843e-28
8.67664 -3.46433e-28 -8.36364e-28
9.37796 -2.76146e-28 -6.66676e-28
10.0496 -1.96436e-28 -4.74237e-28
10.642 -1.07808e-28 -2.60272e-28
11.1031 -1.10918e-29 -2.6778e-29
11.3824 9.25733e-29 2.23492e-28
11.4361 2.01753e-28 4.87075e-28
11.232 3.14751e-28 7.59877e-28
10.7535 4.29649e-28 1.03727e-27
10.0034 5.44358e-28 1.3142e-27
9.00513 6.56672e-28 1.58535e-27
7.80316 7.64337e-28 1.84527e-27
6.46079 8.65113e-28 2.08857e-27
5.05628 9.5684e-28 2.31002e-27
3.67727 1.03751e-27 2.50476e-27
2.41401 1.10531e-27 2.66845e-27
1.35211 1.15871e-27 2.79737e-27
0.565285 1.19649e-27 2.88857e-27
0.108914 1.21777e-27 2.93996e-27
5.10656 -3.11918e-28 -1.56812e-27
5.10804 -3.11871e-28 -1.56788e-27
5.11573 -3.11629e-28 -1.56667e-27
5.13794 -3.10929e-28 -1.56315e-27
5.18611 -3.09406e-28 -1.55549e-27
5.27395 -3.06614e-28 -1.54145e-27
5.41639 -3.02044e-28 -1.51848e-27
5.62815 -2.95149e-28 -1.48381e-27
5.92191 -2.85372e-28 -1.43466e-27
6.30636 -2.72175e-28 -1.36832e-27
6.78414 -2.55066e-28 -1.2823e-27
7.34993 -2.33628e-28 -1.17453e-27
7.98904 -2.07541e-28 -1.04338e-27
8.67664 -1.7661e-28 -8.87879e-28
9.37796 -1.40778e-28 -7.07739e-28
10.0496 -1.00142e-28 -5.03448e-28
10.642 -5.49602e-29 -2.76303e-28
11.1031 -5.65456e-30 -2.84274e-29
11.3824 4.71935e-29 2.37258e-28
11.4361 1.02853e-28 5.17076e-28
11.232 1.60459e-28 8.06681e-28
10.7535 2.19033e-28 1.10116e-27
10.0034 2.77511e-28 1.39514e-27
9.00513 3.34769e-28 1.683e-27
7.80316 3.89656e-28 1.95893e-27
6.46079 4.41031e-28 2.21721e-27
5.05628 4.87793e-28 2.4523e-27
3.67727 5.28916e-28 2.65904e-27
2.41401 5.63481e-28 2.83281e-27
1.35211 5.90705e-28 2.96968e-27
0.565285 6.09964e-28 3.06649e-27
0.108914 6.20815e-28 3.12105e-27
5.10656 -9.77175e-44 -1.59884e-27
5.10804 -9.69227e-44 -1.5986e-27
5.11573 -9.54514e-44 -1.59736e-27
5.13794 -9.32363e-44 -1.59377e-27
5.18611 -9.01889e-44 -1.58596e-27
5.27395 -8.62073e-44 -1.57165e-27
5.41639 -8.11859e-44 -1.54823e-27
5.62815 -7.50264e-44 -1.51288e-27
5.92191 -6.76474e-44 -1.46277e-27
6.30636 -5.89942e-44 -1.39512e-27
6.78414 -4.9047e-44 -1.30743e-27
7.34993 -3.78264e-44 -1.19754e-27
7.98904 -2.53965e-44 -1.06382e-27
8.67664 -1.18655e-44 -9.05274e-28
9.37796 2.61649e-45 -7.21605e-28
10.0496 1.78629e-44 -5.13311e-28
10.642 3.36575e-44 -2.81716e-28
11.1031 4.9763e-44 -2.89843e-29
11.3824 6.59313e-44 2.41906e-28
11.4361 8.19127e-44 5.27207e-28
11.232 9.74661e-44 8.22485e-28
10.7535 1.12367e-43 1.12273e-27
10.0034 1.26414e-43 1.42248e-27
9.00513 1.39433e-43 1.71597e-27
7.80316 1.51282e-43 1.99731e-27
6.46079 1.6185e-43 2.26065e-27
5.05628 1.71052e-43 2.50034e-27
3.67727 1.78832e-43 2.71113e-27
2.41401 1.85154e-43 2.88831e-27
1.35211 1.89998e-43 3.02786e-27
0.565285 1.93353e-43 3.12657e-27
0.108914 1.95219e-43 3.18219e-27
5.10656 3.11918e-28 -1.56812e-27
5.10804 3.11871e-28 -1.56788e-27
5.11573 3.11629e-28 -1.56667e-27
5.13794 3.10929e-28 -1.56315e-27
5.18611 3.09406e-28 -1.55549e-27
5.27395 3.06614e-28 -1.54145e-27
5.41639 3.02044e-28 -1.51848e-27
5.62815 2.95149e-28 -1.48381e-27
5.92191 2.85372e-28 -1.43466e-27
6.30636 2.72175e-28 -1.36832e-27
6.78414 2.55066e-28 -1.2823e-27
7.34993 2.33628e-28 -1.17453e-27
7.98904 2.07541e-28 -1.04338e-27
8.67664 1.7661e-28 -8.87879e-28
9.37796 1.40778e-28 -7.07739e-28
10.0496 1.00142e-28 -5.03448e-28
10.642 5.49602e-29 -2.76303e-28
11.1031 5.65456e-30 -2.84274e-29
11.3824 -4.71935e-29 2.37258e-28
11.4361 -1.02853e-28 5.17076e-28
11.232 -1.60459e-28 8.06681e-28
10.7535 -2.19033e-28 1.10116e-27
10.0034 -2.77511e-28 1.39514e-27
9.00513 -3.34769e-28 1.683e-27
7.80316 -3.89656e-28 1.95893e-27
6.46079 -4.41031e-28 2.21721e-27
5.05628 -4.87793e-28 2.4523e-27
3.67727 -5.28916e-28 2.65904e-27
2.41401 -5.63481e-28 2.83281e-27
1.35211 -5.90705e-28 2.96968e-27
0.565285 -6.09964e-28 3.06649e-27
0.108914 -6.20815e-28 3.12105e-27
5.10656 6.11849e-28 -1.47713e-27
5.10804 6.11758e-28 -1.47691e-27
5.11573 6.11283e-28 -1.47577e-27
5.13794 6.09909e-28 -1.47245e-27
5.18611 6.06922e-28 -1.46524e-27
5.27395 6.01446e-28 -1.45202e-27
5.41639 5.9248e-28 -1.43037e-27
5.62815 5.78955e-28 -1.39772e-27
5.92191 5.59777e-28 -1.35142e-27
6.30636 5.3389e-28 -1.28893e-27
6.78414 5.0033e-28 -1.2079e-27
7.34993 4.58277e-28 -1.10638e-27
7.98904 4.07107e-28 -9.82843e-28
8.67664 3.46433e-28 -8.36364e-28
9.37796 2.76146e-28 -6.66676e-28
10.0496 1.96436e-28 -4.74237e-28
10.642 1.07808e-28 -2.60272e-28
11.1031 1.10918e-29 -2.6778e-29
11.3824 -9.25733e-29 2.23492e-28
11.4361 -2.01753e-28 4.87075e-28
11.232 -3.14751e-28 7.59877e-28
10.7535 -4.29649e-28 1.03727e-27
10.0034 -5.44358e-28 1.3142e-27
9.00513 -6.56672e-28 1.58535e-27
7.80316 -7.64337e-28 1.84527e-27
6.46079 -8.65113e-28 2.08857e-27
5.05628 -9.5684e-28 2.31002e-27
3.67727 -1.03751e-27 2.50476e-27
2.41401 -1.10531e-27 2.66845e-27
1.35211 -1.15871e-27 2.79737e-27
0.565285 -1.19649e-27 2.88857e-27
0.108914 -1.21777e-27 2.93996e-27
5.10656 8.88267e-28 -1.32939e-27
5.10804 8.88135e-28 -1.32919e-27
5.11573 8.87446e-28 -1.32816e-27
5.13794 8.85451e-28 -1.32517e-27
5.18611 8.81115e-28 -1.31868e-27
5.27395 8.73164e-28 -1.30678e-27
5.41639 8.60148e-28 -1.2873e-27
5.62815 8.40512e-28 -1.25791e-27
5.92191 8.1267e-28 -1.21625e-27
6.30636 7.75089e-28 -1.16e-27
6.78414 7.26367e-28 -1.08709e-27
7.34993 6.65316e-28 -9.95715e-28
7.98904 5.91028e-28 -8.84535e-28
8.67664 5.02943e-28 -7.52708e-28
9.37796 4.00902e-28 -5.99992e-28
10.0496 2.8518e-28 -4.26802e-28
10.642 1.56513e-28 -2.34239e-28
11.1031 1.61028e-29 -2.40996e-29
11.3824 -1.34396e-28 2.01137e-28
11.4361 -2.929e-28 4.38356e-28
11.232 -4.56948e-28 6.83871e-28
10.7535 -6.23754e-28 9.33514e-28
10.0034 -7.90285e-28 1.18274e-27
9.00513 -9.5334e-28 1.42677e-27
7.80316 -1.10965e-27 1.6607e-27
6.46079 -1.25595e-27 1.87966e-27
5.05628 -1.38912e-27 2.07896e-27
3.67727 -1.50623e-27 2.25423e-27
2.41401 -1.60466e-27 2.40154e-27
1.35211 -1.68219e-27 2.51757e-27
0.565285 -1.73703e-27 2.59965e-27
0.108914 -1.76793e-27 2.6459e-27
5.10656 1.13055e-27 -1.13055e-27
5.10804 1.13038e-27 -1.13038e-27
5.11573 1.1295e-27 -1.1295e-27
5.13794 1.12697e-27 -1.12697e-27
5.18611 1.12145e-27 -1.12145e-27
5.27395 1.11133e-27 -1.11133e-27
5.41639 1.09476e-27 -1.09476e-27
5.62815 1.06977e-27 -1.06977e-27
5.92191 1.03433e-27 -1.03433e-27
6.30636 9.86501e-28 -9.86501e-28
6.78414 9.2449e-28 -9.2449e-28
7.34993 8.46786e-28 -8.46786e-28
7.98904 7.52235e-28 -7.52235e-28
8.67664 6.40125e-28 -6.40125e-28
9.37796 5.10252e-28 -5.10252e-28
10.0496 3.62965e-28 -3.62965e-28
10.642 1.99204e-28 -1.99204e-28
11.1031 2.0495e-29 -2.0495e-29
11.3824 -1.71053e-28 1.71053e-28
11.4361 -3.72791e-28 3.72791e-28
11.232 -5.81585e-28 5.81585e-28
10.7535 -7.93889e-28 7.93889e-28
10.0034 -1.00584e-27 1.00584e-27
9.00513 -1.21337e-27 1.21337e-27
7.80316 -1.41231e-27 1.41231e-27
6.46079 -1.59852e-27 1.59852e-27
5.05628 -1.76801e-27 1.76801e-27
3.67727 -1.91706e-27 1.91706e-27
2.41401 -2.04234e-27 2.04234e-27
1.35211 -2.14102e-27 2.14102e-27
0.565285 -2.21082e-27 2.21082e-27
0.108914 -2.25015e-27 2.25015e-27
5.10656 1.32939e-27 -8.88267e-28
5.10804 1.32919e-27 -8.88135e-28
5.11573 1.32816e-27 -8.87446e-28
5.13794 1.32517e-27 -8.85451e-28
5.18611 1.31868e-27 -8.81115e-28
5.27395 1.30678e-27 -8.73164e-28
5.41639 1.2873e-27 -8.60148e-28
5.62815 1.25791e-27 -8.40512e-28
5.92191 1.21625e-27 -8.1267e-28
6.30636 1.16e-27 -7.75089e-28
6.78414 1.08709e-27 -7.26367e-28
7.34993 9.95715e-28 -6.65316e-28
7.98904 8.84535e-28 -5.91028e-28
8.67664 7.52708e-28 -5.02943e-28
9.37796 5.99992e-28 -4.00902e-28
10.0496 4.26802e-28 -2.8518e-28
10.642 2.34239e-28 -1.56513e-28
11.1031 2.40996e-29 -1.61028e-29
11.3824 -2.01137e-28 1.34396e-28
11.4361 -4.38356e-28 2.929e-28
11.232 -6.83871e-28 4.56948e-28
10.7535 -9.33514e-28 6.23754e-28
10.0034 -1.18274e-27 7.90285e-28
9.00513 -1.42677e-27 9.5334e-28
7.80316 -1.6607e-27 1.10965e-27
6.46079 -1.87966e-27 1.25595e-27
5.05628 -2.07896e-27 1.38912e-27
3.67727 -2.25423e-27 1.50623e-27
2.41401 -2.40154e-27 1.60466e-27
1.35211 -2.51757e-27 1.68219e-27
0.565285 -2.59965e-27 1.73703e-27
0.108914 -2.6459e-27 1.76793e-27
5.10656 1.47713e-27 -6.11849e-28
5.10804 1.47691e-27 -6.11758e-28
5.11573 1.47577e-27 -6.11283e-28
5.13794 1.47245e-27 -6.09909e-28
5.18611 1.46524e-27 -6.06922e-28
5.27395 1.45202e-27 -6.01446e-28
5.41639 1.43037e-27 -5.9248e-28
5.62815 1.39772e-27 -5.78955e-28
5.92191 1.35142e-27 -5.59777e-28
6.30636 1.28893e-27 -5.3389e-28
6.78414 1.2079e-27 -5.0033e-28
7.34993 1.10638e-27 -4.58277e-28
7.98904 9.82843e-28 -4.07107e-28
8.67664 8.36364e-28 -3.46433e-28
9.37796 6.66676e-28 -2.76146e-28
10.0496 4.74237e-28 -1.96436e-28
10.642 2.60272e-28 -1.07808e-28
11.1031 2.6778e-29 -1.10918e-29
11.3824 -2.23492e-28 9.25733e-29
11.4361 -4.87075e-28 2.01753e-28
11.232 -7.59877e-28 3.14751e-28
10.7535 -1.03727e-27 4.29649e-28
10.0034 -1.3142e-27 5.44358e-28
9.00513 -1.58535e-27 6.56672e-28
7.80316 -1.84527e-27 7.64337e-28
6.46079 -2.08857e-27 8.65113e-28
5.05628 -2.31002e-27 9.5684e-28
3.67727 -2.50476e-27 1.03751e-27
2.41401 -2.66845e-27 1.10531e-27
1.35211 -2.79737e-27 1.15871e-27
0.565285 -2.88857e-27 1.19649e-27
0.108914 -2.93996e-27 1.21777e-27
5.10656 1.56812e-27 -3.11918e-28
5.10804 1.56788e-27 -3.11871e-28
5.11573 1.56667e-27 -3.11629e-28
5.13794 1.56315e-27 -3.10929e-28
5.18611 1.55549e-27 -3.09406e-28
5.27395 1.54145e-27 -3.06614e-28
5.41639 1.51848e-27 -3.02044e-28
5.62815 1.48381e-27 -2.95149e-28
5.92191 1.43466e-27 -2.85372e-28
6.30636 1.36832e-27 -2.72175e-28
6.78414 1.2823e-27 -2.55066e-28
7.34993 1.17453e-27 -2.33628e-28
7.98904 1.04338e-27 -2.07541e-28
8.67664 8.87879e-28 -1.7661e-28
9.37796 7.07739e-28 -1.40778e-28
10.0496 5.03448e-28 -1.00142e-28
10.642 2.76303e-28 -5.49602e-29
11.1031 2.84274e-29 -5.65456e-30
11.3824 -2.37258e-28 4.71935e-29
11.4361 -5.17076e-28 1.02853e-28
11.232 -8.06681e-28 1.60459e-28
10.7535 -1.10116e-27 2.19033e-28
10.0034 -1.39514e-27 2.77511e-28
9.00513 -1.683e-27 3.34769e-28
7.80316 -1.95893e-27 3.89656e-28
6.46079 -2.21721e-27 4.41031e-28
5.05628 -2.4523e-27 4.87793e-28
3.67727 -2.65904e-27 5.28916e-28
2.41401 -2.83281e-27 5.63481e-28
1.35211 -2.96968e-27 5.90705e-28
0.565285 -3.06649e-27 6.09964e-28
0.108914 -3.12105e-27 6.20815e-28
5.10656 1.59884e-27 -1.95813e-43
5.10804 1.5986e-27 -1.95834e-43
5.11573 1.59736e-27 -1.95772e-43
5.13794 1.59377e-27 -1.95461e-43
5.18611 1.58596e-27 -1.94671e-43
5.27395 1.57165e-27 -1.93118e-43
5.41639 1.54823e-27 -1.9048e-43
5.62815 1.51288e-27 -1.86409e-43
5.92191 1.46277e-27 -1.8055e-43
6.30636 1.39512e-27 -1.72557e-43
6.78414 1.30743e-27 -1.62112e-43
7.34993 1.19754e-27 -1.48944e-43
7.98904 1.06382e-27 -1.32842e-43
8.67664 9.05274e-28 -1.13672e-43
9.37796 7.21605e-28 -9.13872e-44
10.0496 5.13311e-28 -6.60392e-44
10.642 2.81716e-28 -3.77811e-44
11.1031 2.89843e-29 -6.87091e-45
11.3824 -2.41906e-28 2.63306e-44
11.4361 -5.27207e-28 6.13657e-44
11.232 -8.22485e-28 9.76898e-44
10.7535 -1.12273e-27 1.34683e-43
10.0034 -1.42248e-27 1.71669e-43
9.00513 -1.71597e-27 2.07931e-43
7.80316 -1.99731e-27 2.42732e-43
6.46079 -2.26065e-27 2.7534e-43
5.05628 -2.50034e-27 3.05047e-43
3.67727 -2.71113e-27 3.31192e-43
2.41401 -2.88831e-27 3.53181e-43
1.35211 -3.02786e-27 3.70509e-43
0.565285 -3.12657e-27 3.82772e-43
0.108914 -3.18219e-27 3.89683e-43
5.10656 1.56812e-27 3.11918e-28
5.10804 1.56788e-27 3.11871e-28
5.11573 1.56667e-27 3.11629e-28
5.13794 1.56315e-27 3.10929e-28
5.18611 1.55549e-27 3.09406e-28
5.27395 1.54145e-27 3.06614e-28
5.41639 1.51848e-27 3.02044e-28
5.62815 1.48381e-27 2.95149e-28
5.92191 1.43466e-27 2.85372e-28
6.30636 1.36832e-27 2.72175e-28
6.78414 1.2823e-27 2.55066e-28
7.34993 1.17453e-27 2.33628e-28
7.98904 1.04338e-27 2.07541e-28
8.67664 8.87879e-28 1.7661e-28
9.37796 7.07739e-28 1.40778e-28
10.0496 5.03448e-28 1.00142e-28
10.642 2.76303e-28 5.49602e-29
11.1031 2.84274e-29 5.65456e-30
11.3824 -2.37258e-28 -4.71935e-29
11.4361 -5.17076e-28 -1.02853e-28
11.232 -8.06681e-28 -1.60459e-28
10.7535 -1.10116e-27 -2.19033e-28
10.0034 -1.39514e-27 -2.77511e-28
9.00513 -1.683e-27 -3.34769e-28
7.80316 -1.95893e-27 -3.89656e-28
6.46079 -2.21721e-27 -4.41031e-28
5.05628 -2.4523e-27 -4.87793e-28
3.67727 -2.65904e-27 -5.28916e-28
2.41401 -2.83281e-27 -5.63481e-28
1.35211 -2.96968e-27 -5.90705e-28
0.565285 -3.06649e-27 -6.09964e-28
0.108914 -3.12105e-27 -6.20815e-28
5.10656 1.47713e-27 6.11849e-28
5.10804 1.47691e-27 6.11758e-28
5.11573 1.47577e-27 6.11283e-28
5.13794 1.47245e-27 6.09909e-28
5.18611 1.46524e-27 6.06922e-28
5.27395 1.45202e-27 6.01446e-28
5.41639 1.43037e-27 5.9248e-28
5.62815 1.39772e-27 5.78955e-28
5.92191 1.35142e-27 5.59777e-28
6.30636 1.28893e-27 5.3389e-28
6.78414 1.2079e-27 5.0033e-28
7.34993 1.10638e-27 4.58277e-28
7.98904 9.82843e-28 4.07107e-28
8.67664 8.36364e-28 3.46433e-28
9.37796 6.66676e-28 2.76146e-28
10.0496 4.74237e-28 1.96436e-28
10.642 2.60272e-28 1.07808e-28
11.1031 2.6778e-29 1.10918e-29
11.3824 -2.23492e-28 -9.25733e-29
11.4361 -4.87075e-28 -2.01753e-28
11.232 -7.59877e-28 -3.14751e-28
10.7535 -1.03727e-27 -4.29649e-28
10.0034 -1.3142e-27 -5.44358e-28
9.00513 -1.58535e-27 -6.56672e-28
7.80316 -1.84527e-27 -7.64337e-28
6.46079 -2.08857e-27 -8.65113e-28
5.05628 -2.31002e-27 -9.5684e-28
3.67727 -2.50476e-27 -1.03751e-27
2.41401 -2.66845e-27 -1.10531e-27
1.35211 -2.79737e-27 -1.15871e-27
0.565285 -2.88857e-27 -1.19649e-27