# vtk DataFile Version 3.0
LifeV output
ASCII
DATASET UNSTRUCTURED_GRID
POINTS 25600 float
0 0.000684035 0
0 0.00359712 0
0 0.00880944 0
0 0.0162735 0
0 0.0259197 0
0 0.0376581 0
0 0.0513791 0
0 0.0669545 0
0 0.0842389 0
0 0.103071 0
0 0.123275 0
0 0.144662 0
0 0.167033 0
0 0.190178 0
0 0.213882 0
0 0.237923 0
0 0.262077 0
0 0.286118 0
0 0.309822 0
0 0.332967 0
0 0.355338 0
0 0.376725 0
0 0.396929 0
0 0.415761 0
0 0.433046 0
0 0.448621 0
0 0.462342 0
0 0.47408 0
0 0.483727 0
0 0.491191 0
0 0.496403 0
0 0.499316 0
0 0.000670891 0.000133449
0 0.003528 0.000701764
0 0.00864017 0.00171864
0 0.0159608 0.0031748
0 0.0254217 0.00505668
0 0.0369345 0.00734673
0 0.0503918 0.0100236
0 0.065668 0.0130622
0 0.0826203 0.0164342
0 0.101091 0.0201082
0 0.120906 0.0240498
0 0.141883 0.0282222
0 0.163823 0.0325865
0 0.186524 0.0371019
0 0.209772 0.0417263
0 0.233351 0.0464165
0 0.257041 0.0511287
0 0.28062 0.0558189
0 0.303869 0.0604432
0 0.326569 0.0649587
0 0.34851 0.069323
0 0.369486 0.0734954
0 0.389302 0.077437
0 0.407772 0.081111
0 0.424725 0.084483
0 0.440001 0.0875216
0 0.453458 0.0901984
0 0.464971 0.0924885
0 0.474432 0.0943704
0 0.481752 0.0958265
0 0.486865 0.0968434
0 0.489722 0.0974117
0 0.000631966 0.000261769
0 0.00332331 0.00137656
0 0.00813886 0.00337123
0 0.0150347 0.00622759
0 0.0239467 0.00991904
0 0.0347915 0.0144111
0 0.0474681 0.0196619
0 0.0618579 0.0256224
0 0.0778266 0.0322368
0 0.0952252 0.0394436
0 0.113891 0.0471753
0 0.13365 0.0553598
0 0.154318 0.0639207
0 0.175702 0.072778
0 0.197601 0.0818491
0 0.219812 0.0910492
0 0.242127 0.100292
0 0.264339 0.109493
0 0.286238 0.118564
0 0.307622 0.127421
0 0.328289 0.135982
0 0.348048 0.144166
0 0.366715 0.151898
0 0.384113 0.159105
0 0.400082 0.165719
0 0.414472 0.17168
0 0.427148 0.176931
0 0.437993 0.181423
0 0.446905 0.185114
0 0.453801 0.18797
0 0.458616 0.189965
0 0.461308 0.19108
0 0.000568754 0.000380029
0 0.0029909 0.00199845
0 0.00732478 0.00489426
0 0.0135309 0.00904106
0 0.0215515 0.0144002
0 0.0313116 0.0209217
0 0.0427201 0.0285447
0 0.0556706 0.0371979
0 0.0700421 0.0468006
0 0.0857005 0.0572632
0 0.102499 0.0684879
0 0.120282 0.08037
0 0.138883 0.0927985
0 0.158127 0.105657
0 0.177836 0.118826
0 0.197826 0.132183
0 0.217909 0.145602
0 0.237898 0.158959
0 0.257607 0.172128
0 0.276852 0.184987
0 0.295453 0.197415
0 0.313235 0.209297
0 0.330034 0.220522
0 0.345693 0.230984
0 0.360064 0.240587
0 0.373015 0.24924
0 0.384423 0.256863
0 0.394183 0.263385
0 0.402204 0.268744
0 0.40841 0.272891
0 0.412744 0.275787
0 0.415166 0.277405
0 0.000483685 0.000483685
0 0.00254355 0.00254355
0 0.00622921 0.00622921
0 0.0115071 0.0115071
0 0.018328 0.018328
0 0.0266283 0.0266283
0 0.0363305 0.0363305
0 0.047344 0.047344
0 0.0595659 0.0595659
0 0.0728822 0.0728822
0 0.0871686 0.0871686
0 0.102292 0.102292
0 0.11811 0.11811
0 0.134476 0.134476
0 0.151237 0.151237
0 0.168237 0.168237
0 0.185316 0.185316
0 0.202316 0.202316
0 0.219077 0.219077
0 0.235443 0.235443
0 0.251262 0.251262
0 0.266385 0.266385
0 0.280671 0.280671
0 0.293987 0.293987
0 0.306209 0.306209
0 0.317223 0.317223
0 0.326925 0.326925
0 0.335225 0.335225
0 0.342046 0.342046
0 0.347324 0.347324
0 0.35101 0.35101
0 0.35307 0.35307
0 0.000380029 0.000568754
0 0.00199845 0.0029909
0 0.00489426 0.00732478
0 0.00904106 0.0135309
0 0.0144002 0.0215515
0 0.0209217 0.0313116
0 0.0285447 0.0427201
0 0.0371979 0.0556706
0 0.0468006 0.0700421
0 0.0572632 0.0857005
0 0.0684879 0.102499
0 0.08037 0.120282
0 0.0927985 0.138883
0 0.105657 0.158127
0 0.118826 0.177836
0 0.132183 0.197826
0 0.145602 0.217909
0 0.158959 0.237898
0 0.172128 0.257607
0 0.184987 0.276852
0 0.197415 0.295453
0 0.209297 0.313235
0 0.220522 0.330034
0 0.230984 0.345693
0 0.240587 0.360064
0 0.24924 0.373015
0 0.256863 0.384423
0 0.263385 0.394183
0 0.268744 0.402204
0 0.272891 0.40841
0 0.275787 0.412744
0 0.277405 0.415166
0 0.000261769 0.000631966
0 0.00137656 0.00332331
0 0.00337123 0.00813886
0 0.00622759 0.0150347
0 0.00991904 0.0239467
0 0.0144111 0.0347915
0 0.0196619 0.0474681
0 0.0256224 0.0618579
0 0.0322368 0.0778266
0 0.0394436 0.0952252
0 0.0471753 0.113891
0 0.0553598 0.13365
0 0.0639207 0.154318
0 0.072778 0.175702
0 0.0818491 0.197601
0 0.0910492 0.219812
0 0.100292 0.242127
0 0.109493 0.264339
0 0.118564 0.286238
0 0.127421 0.307622
0 0.135982 0.328289
0 0.144166 0.348048
0 0.151898 0.366715
0 0.159105 0.384113
0 0.165719 0.400082
0 0.17168 0.414472
0 0.176931 0.427148
0 0.181423 0.437993
0 0.185114 0.446905
0 0.18797 0.453801
0 0.189965 0.458616
0 0.19108 0.461308
0 0.000133449 0.000670891
0 0.000701764 0.003528
0 0.00171864 0.00864017
0 0.0031748 0.0159608
0 0.00505668 0.0254217
0 0.00734673 0.0369345
0 0.0100236 0.0503918
0 0.0130622 0.065668
0 0.0164342 0.0826203
0 0.0201082 0.101091
0 0.0240498 0.120906
0 0.0282222 0.141883
0 0.0325865 0.163823
0 0.0371019 0.186524
0 0.0417263 0.209772
0 0.0464165 0.233351
0 0.0511287 0.257041
0 0.0558189 0.28062
0 0.0604432 0.303869
0 0.0649587 0.326569
0 0.069323 0.34851
0 0.0734954 0.369486
0 0.077437 0.389302
0 0.081111 0.407772
0 0.084483 0.424725
0 0.0875216 0.440001
0 0.0901984 0.453458
0 0.0924885 0.464971
0 0.0943704 0.474432
0 0.0958265 0.481752
0 0.0968434 0.486865
0 0.0974117 0.489722
0 4.1885e-20 0.000684035
0 2.2026e-19 0.00359712
0 5.39422e-19 0.00880944
0 9.96463e-19 0.0162735
0 1.58712e-18 0.0259197
0 2.30589e-18 0.0376581
0 3.14606e-18 0.0513791
0 4.09978e-18 0.0669545
0 5.15815e-18 0.0842389
0 6.31128e-18 0.103071
0 7.54842e-18 0.123275
0 8.858e-18 0.144662
0 1.02278e-17 0.167033
0 1.16451e-17 0.190178
0 1.30965e-17 0.213882
0 1.45686e-17 0.237923
0 1.60476e-17 0.262077
0 1.75197e-17 0.286118
0 1.89711e-17 0.309822
0 2.03884e-17 0.332967
0 2.17582e-17 0.355338
0 2.30678e-17 0.376725
0 2.43049e-17 0.396929
0 2.5458e-17 0.415761
0 2.65164e-17 0.433046
0 2.74701e-17 0.448621
0 2.83103e-17 0.462342
0 2.9029e-17 0.47408
0 2.96197e-17 0.483727
0 3.00767e-17 0.491191
0 3.03959e-17 0.496403
0 3.05743e-17 0.499316
0 -0.000133449 0.000670891
0 -0.000701764 0.003528
0 -0.00171864 0.00864017
0 -0.0031748 0.0159608
0 -0.00505668 0.0254217
0 -0.00734673 0.0369345
0 -0.0100236 0.0503918
0 -0.0130622 0.065668
0 -0.0164342 0.0826203
0 -0.0201082 0.101091
0 -0.0240498 0.120906
0 -0.0282222 0.141883
0 -0.0325865 0.163823
0 -0.0371019 0.186524
0 -0.0417263 0.209772
0 -0.0464165 0.233351
0 -0.0511287 0.257041
0 -0.0558189 0.28062
0 -0.0604432 0.303869
0 -0.0649587 0.326569
0 -0.069323 0.34851
0 -0.0734954 0.369486
0 -0.077437 0.389302
0 -0.081111 0.407772
0 -0.084483 0.424725
0 -0.0875216 0.440001
0 -0.0901984 0.453458
0 -0.0924885 0.464971
0 -0.0943704 0.474432
0 -0.0958265 0.481752
0 -0.0968434 0.486865
0 -0.0974117 0.489722
0 -0.000261769 0.000631966
0 -0.00137656 0.00332331
0 -0.00337123 0.00813886
0 -0.00622759 0.0150347
0 -0.00991904 0.0239467
0 -0.0144111 0.0347915
0 -0.0196619 0.0474681
0 -0.0256224 0.0618579
0 -0.0322368 0.0778266
0 -0.0394436 0.0952252
0 -0.0471753 0.113891
0 -0.0553598 0.13365
0 -0.0639207 0.154318
0 -0.072778 0.175702
0 -0.0818491 0.197601
0 -0.0910492 0.219812
0 -0.100292 0.242127
0 -0.109493 0.264339
0 -0.118564 0.286238
0 -0.127421 0.307622
0 -0.135982 0.328289
0 -0.144166 0.348048
0 -0.151898 0.366715
0 -0.159105 0.384113
0 -0.165719 0.400082
0 -0.17168 0.414472
0 -0.176931 0.427148
0 -0.181423 0.437993
0 -0.185114 0.446905
0 -0.18797 0.453801
0 -0.189965 0.458616
0 -0.19108 0.461308
0 -0.000380029 0.000568754
0 -0.00199845 0.0029909
0 -0.00489426 0.00732478
0 -0.00904106 0.0135309
0 -0.0144002 0.0215515
0 -0.0209217 0.0313116
0 -0.0285447 0.0427201
0 -0.0371979 0.0556706
0 -0.0468006 0.0700421
0 -0.0572632 0.0857005
0 -0.0684879 0.102499
0 -0.08037 0.120282
0 -0.0927985 0.138883
0 -0.105657 0.158127
0 -0.118826 0.177836
0 -0.132183 0.197826
0 -0.145602 0.217909
0 -0.158959 0.237898
0 -0.172128 0.257607
0 -0.184987 0.276852
0 -0.197415 0.295453
0 -0.209297 0.313235
0 -0.220522 0.330034
0 -0.230984 0.345693
0 -0.240587 0.360064
0 -0.24924 0.373015
0 -0.256863 0.384423
0 -0.263385 0.394183
0 -0.268744 0.402204
0 -0.272891 0.40841
0 -0.275787 0.412744
0 -0.277405 0.415166
0 -0.000483685 0.000483685
0 -0.00254355 0.00254355
0 -0.00622921 0.00622921
0 -0.0115071 0.0115071
0 -0.018328 0.018328
0 -0.0266283 0.0266283
0 -0.0363305 0.0363305
0 -0.047344 0.047344
0 -0.0595659 0.0595659
0 -0.0728822 0.0728822
0 -0.0871686 0.0871686
0 -0.102292 0.102292
0 -0.11811 0.11811
0 -0.134476 0.134476
0 -0.151237 0.151237
0 -0.168237 0.168237
0 -0.185316 0.185316
0 -0.202316 0.202316
0 -0.219077 0.219077
0 -0.235443 0.235443
0 -0.251262 0.251262
0 -0.266385 0.266385
0 -0.280671 0.280671
0 -0.293987 0.293987
0 -0.306209 0.306209
0 -0.317223 0.317223
0 -0.326925 0.326925
0 -0.335225 0.335225
0 -0.342046 0.342046
0 -0.347324 0.347324
0 -0.35101 0.35101
0 -0.35307 0.35307
0 -0.000568754 0.000380029
0 -0.0029909 0.00199845
0 -0.00732478 0.00489426
0 -0.0135309 0.00904106
0 -0.0215515 0.0144002
0 -0.0313116 0.0209217
0 -0.0427201 0.0285447
0 -0.0556706 0.0371979
0 -0.0700421 0.0468006
0 -0.0857005 0.0572632
0 -0.102499 0.0684879
0 -0.120282 0.08037
0 -0.138883 0.0927985
0 -0.158127 0.105657
0 -0.177836 0.118826
0 -0.197826 0.132183
0 -0.217909 0.145602
0 -0.237898 0.158959
0 -0.257607 0.172128
0 -0.276852 0.184987
0 -0.295453 0.197415
0 -0.313235 0.209297
0 -0.330034 0.220522
0 -0.345693 0.230984
0 -0.360064 0.240587
0 -0.373015 0.24924
0 -0.384423 0.256863
0 -0.394183 0.263385
0 -0.402204 0.268744
0 -0.40841 0.272891
0 -0.412744 0.275787
0 -0.415166 0.277405
0 -0.000631966 0.000261769
0 -0.00332331 0.00137656
[...]
POINT_DATA 25600
FIELD FieldData 1
Velocity 3 25600 double
5.09324 -6.43318e-27 6.91255e-47
5.09474 -6.43221e-27 3.63491e-46
5.10249 -6.42722e-27 8.89968e-46
5.12492 -6.41276e-27 1.64279e-45
5.17355 -6.38132e-27 2.6123e-45
5.26222 -6.32369e-27 3.78398e-45
5.40603 -6.22933e-27 5.13733e-45
5.61982 -6.08698e-27 6.64481e-45
5.9164 -5.88515e-27 8.2712e-45
6.30458 -5.61271e-27 9.97331e-45
6.78702 -5.25951e-27 1.17004e-44
7.3584 -4.81693e-27 1.33952e-44
8.00393 -4.27839e-27 1.49959e-44
8.6986 -3.63984e-27 1.64382e-44
9.40737 -2.90011e-27 1.7659e-44
10.0865 -2.06121e-27 1.85993e-44
10.6861 -1.12846e-27 1.92081e-44
11.1535 -1.10585e-28 1.94459e-44
11.4379 9.80425e-28 1.92878e-44
11.4952 2.12947e-27 1.87263e-44
11.2928 3.31871e-27 1.77728e-44
10.8139 4.52794e-27 1.64583e-44
10.0613 5.73517e-27 1.4833e-44
9.05852 6.91721e-27 1.29646e-44
7.85035 8.05032e-27 1.09355e-44
6.5005 9.11092e-27 8.83852e-45
5.08776 1.00763e-26 6.77286e-45
3.70039 1.09252e-26 4.83836e-45
2.42931 1.16388e-26 3.13023e-45
1.36073 1.22008e-26 1.73371e-45
0.568902 1.25984e-26 7.19193e-46
0.109613 1.28224e-26 1.37968e-46
5.09324 -6.30957e-27 -1.25505e-27
5.09474 -6.30862e-27 -1.25486e-27
5.10249 -6.30372e-27 -1.25389e-27
5.12492 -6.28954e-27 -1.25107e-27
5.17355 -6.25871e-27 -1.24493e-27
5.26222 -6.20218e-27 -1.23369e-27
5.40603 -6.10964e-27 -1.21528e-27
5.61982 -5.97002e-27 -1.18751e-27
5.9164 -5.77207e-27 -1.14814e-27
6.30458 -5.50486e-27 -1.09499e-27
6.78702 -5.15845e-27 -1.02608e-27
7.3584 -4.72437e-27 -9.39736e-28
8.00393 -4.19618e-27 -8.34673e-28
8.6986 -3.5699e-27 -7.10098e-28
9.40737 -2.84439e-27 -5.65784e-28
10.0865 -2.0216e-27 -4.02122e-28
10.6861 -1.10678e-27 -2.20152e-28
11.1535 -1.0846e-28 -2.1574e-29
11.4379 9.61586e-28 1.91271e-28
11.4952 2.08856e-27 4.1544e-28
11.2928 3.25494e-27 6.47448e-28
10.8139 4.44093e-27 8.83357e-28
10.0613 5.62497e-27 1.11888e-27
9.05852 6.7843e-27 1.34948e-27
7.85035 7.89563e-27 1.57054e-27
6.5005 8.93585e-27 1.77745e-27
5.08776 9.88267e-27 1.96579e-27
3.70039 1.07153e-26 2.13141e-27
2.42931 1.14152e-26 2.27062e-27
1.36073 1.19664e-26 2.38027e-27
0.568902 1.23563e-26 2.45783e-27
0.109613 1.25761e-26 2.50153e-27
5.09324 -5.94348e-27 -2.46187e-27
5.09474 -5.94259e-27 -2.4615e-27
5.10249 -5.93798e-27 -2.45959e-27
5.12492 -5.92462e-27 -2.45406e-27
5.17355 -5.89558e-27 -2.44203e-27
5.26222 -5.84232e-27 -2.41997e-27
5.40603 -5.75515e-27 -2.38386e-27
5.61982 -5.62364e-27 -2.32939e-27
5.9164 -5.43717e-27 -2.25215e-27
6.30458 -5.18547e-27 -2.14789e-27
6.78702 -4.85916e-27 -2.01273e-27
7.3584 -4.45026e-27 -1.84336e-27
8.00393 -3.95272e-27 -1.63727e-27
8.6986 -3.36278e-27 -1.39291e-27
9.40737 -2.67936e-27 -1.10983e-27
10.0865 -1.90431e-27 -7.88791e-28
10.6861 -1.04256e-27 -4.31844e-28
11.1535 -1.02167e-28 -4.2319e-29
11.4379 9.05794e-28 3.75192e-28
11.4952 1.96738e-27 8.14915e-28
11.2928 3.06609e-27 1.27001e-27
10.8139 4.18327e-27 1.73277e-27
10.0613 5.29861e-27 2.19475e-27
9.05852 6.39067e-27 2.6471e-27
7.85035 7.43752e-27 3.08072e-27
6.5005 8.41739e-27 3.4866e-27
5.08776 9.30927e-27 3.85603e-27
3.70039 1.00936e-26 4.18091e-27
2.42931 1.07529e-26 4.45398e-27
1.36073 1.12721e-26 4.66906e-27
0.568902 1.16394e-26 4.8212e-27
0.109613 1.18464e-26 4.90693e-27
5.09324 -5.34899e-27 -3.57408e-27
5.09474 -5.34819e-27 -3.57355e-27
5.10249 -5.34404e-27 -3.57077e-27
5.12492 -5.33201e-27 -3.56274e-27
5.17355 -5.30588e-27 -3.54527e-27
5.26222 -5.25795e-27 -3.51325e-27
5.40603 -5.1795e-27 -3.46083e-27
5.61982 -5.06114e-27 -3.38175e-27
5.9164 -4.89332e-27 -3.26961e-27
6.30458 -4.6668e-27 -3.11825e-27
6.78702 -4.37312e-27 -2.92203e-27
7.3584 -4.00513e-27 -2.67614e-27
8.00393 -3.55735e-27 -2.37695e-27
8.6986 -3.02642e-27 -2.02219e-27
9.40737 -2.41136e-27 -1.61122e-27
10.0865 -1.71383e-27 -1.14515e-27
10.6861 -9.38283e-28 -6.26941e-28
11.1535 -9.1948e-29 -6.14377e-29
11.4379 8.15193e-28 5.44695e-28
11.4952 1.77059e-27 1.18307e-27
11.2928 2.7594e-27 1.84378e-27
10.8139 3.76484e-27 2.51559e-27
10.0613 4.76862e-27 3.18629e-27
9.05852 5.75145e-27 3.84299e-27
7.85035 6.69359e-27 4.47252e-27
6.5005 7.57545e-27 5.06175e-27
5.08776 8.37812e-27 5.59808e-27
3.70039 9.08401e-27 6.06974e-27
2.42931 9.67733e-27 6.46618e-27
1.36073 1.01446e-26 6.77842e-27
0.568902 1.04752e-26 6.9993e-27
0.109613 1.06615e-26 7.12376e-27
5.09324 -4.54894e-27 -4.54894e-27
5.09474 -4.54826e-27 -4.54826e-27
5.10249 -4.54473e-27 -4.54473e-27
5.12492 -4.53451e-27 -4.53451e-27
5.17355 -4.51228e-27 -4.51228e-27
5.26222 -4.47152e-27 -4.47152e-27
5.40603 -4.4048e-27 -4.4048e-27
5.61982 -4.30415e-27 -4.30415e-27
5.9164 -4.16143e-27 -4.16143e-27
6.30458 -3.96878e-27 -3.96878e-27
6.78702 -3.71904e-27 -3.71904e-27
7.3584 -3.40608e-27 -3.40608e-27
8.00393 -3.02528e-27 -3.02528e-27
8.6986 -2.57376e-27 -2.57376e-27
9.40737 -2.05069e-27 -2.05069e-27
10.0865 -1.4575e-27 -1.4575e-27
10.6861 -7.97945e-28 -7.97945e-28
11.1535 -7.81953e-29 -7.81953e-29
11.4379 6.93265e-28 6.93265e-28
11.4952 1.50577e-27 1.50577e-27
11.2928 2.34668e-27 2.34668e-27
10.8139 3.20174e-27 3.20174e-27
10.0613 4.05538e-27 4.05538e-27
9.05852 4.8912e-27 4.8912e-27
7.85035 5.69243e-27 5.69243e-27
6.5005 6.44239e-27 6.44239e-27
5.08776 7.12501e-27 7.12501e-27
3.70039 7.72531e-27 7.72531e-27
2.42931 8.22989e-27 8.22989e-27
1.36073 8.6273e-27 8.6273e-27
0.568902 8.90842e-27 8.90842e-27
0.109613 9.06683e-27 9.06683e-27
5.09324 -3.57408e-27 -5.34899e-27
5.09474 -3.57355e-27 -5.34819e-27
5.10249 -3.57077e-27 -5.34404e-27
5.12492 -3.56274e-27 -5.33201e-27
5.17355 -3.54527e-27 -5.30588e-27
5.26222 -3.51325e-27 -5.25795e-27
5.40603 -3.46083e-27 -5.1795e-27
5.61982 -3.38175e-27 -5.06114e-27
5.9164 -3.26961e-27 -4.89332e-27
6.30458 -3.11825e-27 -4.6668e-27
6.78702 -2.92203e-27 -4.37312e-27
7.3584 -2.67614e-27 -4.00513e-27
8.00393 -2.37695e-27 -3.55735e-27
8.6986 -2.02219e-27 -3.02642e-27
9.40737 -1.61122e-27 -2.41136e-27
10.0865 -1.14515e-27 -1.71383e-27
10.6861 -6.26941e-28 -9.38283e-28
11.1535 -6.14377e-29 -9.1948e-29
11.4379 5.44695e-28 8.15193e-28
11.4952 1.18307e-27 1.77059e-27
11.2928 1.84378e-27 2.7594e-27
10.8139 2.51559e-27 3.76484e-27
10.0613 3.18629e-27 4.76862e-27
9.05852 3.84299e-27 5.75145e-27
7.85035 4.47252e-27 6.69359e-27
6.5005 5.06175e-27 7.57545e-27
5.08776 5.59808e-27 8.37812e-27
3.70039 6.06974e-27 9.08401e-27
2.42931 6.46618e-27 9.67733e-27
1.36073 6.77842e-27 1.01446e-26
0.568902 6.9993e-27 1.04752e-26
0.109613 7.12376e-27 1.06615e-26
5.09324 -2.46187e-27 -5.94348e-27
5.09474 -2.4615e-27 -5.94259e-27
5.10249 -2.45959e-27 -5.93798e-27
5.12492 -2.45406e-27 -5.92462e-27
5.17355 -2.44203e-27 -5.89558e-27
5.26222 -2.41997e-27 -5.84232e-27
5.40603 -2.38386e-27 -5.75515e-27
5.61982 -2.32939e-27 -5.62364e-27
5.9164 -2.25215e-27 -5.43717e-27
6.30458 -2.14789e-27 -5.18547e-27
6.78702 -2.01273e-27 -4.85916e-27
7.3584 -1.84336e-27 -4.45026e-27
8.00393 -1.63727e-27 -3.95272e-27
8.6986 -1.39291e-27 -3.36278e-27
9.40737 -1.10983e-27 -2.67936e-27
10.0865 -7.88791e-28 -1.90431e-27
10.6861 -4.31844e-28 -1.04256e-27
11.1535 -4.2319e-29 -1.02167e-28
11.4379 3.75192e-28 9.05794e-28
11.4952 8.14915e-28 1.96738e-27
11.2928 1.27001e-27 3.06609e-27
10.8139 1.73277e-27 4.18327e-27
10.0613 2.19475e-27 5.29861e-27
9.05852 2.6471e-27 6.39067e-27
7.85035 3.08072e-27 7.43752e-27
6.5005 3.4866e-27 8.41739e-27
5.08776 3.85603e-27 9.30927e-27
3.70039 4.18091e-27 1.00936e-26
2.42931 4.45398e-27 1.07529e-26
1.36073 4.66906e-27 1.12721e-26
0.568902 4.8212e-27 1.16394e-26
0.109613 4.90693e-27 1.18464e-26
5.09324 -1.25505e-27 -6.30957e-27
5.09474 -1.25486e-27 -6.30862e-27
5.10249 -1.25389e-27 -6.30372e-27
5.12492 -1.25107e-27 -6.28954e-27
5.17355 -1.24493e-27 -6.25871e-27
5.26222 -1.23369e-27 -6.20218e-27
5.40603 -1.21528e-27 -6.10964e-27
5.61982 -1.18751e-27 -5.97002e-27
5.9164 -1.14814e-27 -5.77207e-27
6.30458 -1.09499e-27 -5.50486e-27
6.78702 -1.02608e-27 -5.15845e-27
7.3584 -9.39736e-28 -4.72437e-27
8.00393 -8.34673e-28 -4.19618e-27
8.6986 -7.10098e-28 -3.5699e-27
9.40737 -5.65784e-28 -2.84439e-27
10.0865 -4.02122e-28 -2.0216e-27
10.6861 -2.20152e-28 -1.10678e-27
11.1535 -2.1574e-29 -1.0846e-28
11.4379 1.91271e-28 9.61586e-28
11.4952 4.1544e-28 2.08856e-27
11.2928 6.47448e-28 3.25494e-27
10.8139 8.83357e-28 4.44093e-27
10.0613 1.11888e-27 5.62497e-27
9.05852 1.34948e-27 6.7843e-27
7.85035 1.57054e-27 7.89563e-27
6.5005 1.77745e-27 8.93585e-27
5.08776 1.96579e-27 9.88267e-27
3.70039 2.13141e-27 1.07153e-26
2.42931 2.27062e-27 1.14152e-26
1.36073 2.38027e-27 1.19664e-26
0.568902 2.45783e-27 1.23563e-26
0.109613 2.50153e-27 1.25761e-26
5.09324 -3.93272e-43 -6.43318e-27
5.09474 -3.90462e-43 -6.43221e-27
5.10249 -3.85235e-43 -6.42722e-27
5.12492 -3.77312e-43 -6.41276e-27
5.17355 -3.66325e-43 -6.38132e-27
5.26222 -3.51843e-43 -6.32369e-27
5.40603 -3.33415e-43 -6.22933e-27
5.61982 -3.10607e-43 -6.08698e-27
5.9164 -2.83045e-43 -5.88515e-27
6.30458 -2.50452e-43 -5.61271e-27
6.78702 -2.12681e-43 -5.25951e-27
7.3584 -1.69738e-43 -4.81693e-27
8.00393 -1.218e-43 -4.27839e-27
8.6986 -6.92171e-44 -3.63984e-27
9.40737 -1.25101e-44 -2.90011e-27
10.0865 4.76476e-44 -2.06121e-27
10.6861 1.10453e-43 -1.12846e-27
11.1535 1.75002e-43 -1.10585e-28
11.4379 2.4033e-43 9.80425e-28
11.4952 3.0544e-43 2.12947e-27
11.2928 3.69346e-43 3.31871e-27
10.8139 4.31102e-43 4.52794e-27
10.0613 4.89832e-43 5.73517e-27
9.05852 5.44746e-43 6.91721e-27
7.85035 5.95161e-43 8.05032e-27
6.5005 6.40502e-43 9.11092e-27
5.08776 6.80305e-43 1.00763e-26
3.70039 7.14206e-43 1.09252e-26
2.42931 7.41933e-43 1.16388e-26
1.36073 7.63292e-43 1.22008e-26
0.568902 7.78153e-43 1.25984e-26
0.109613 7.86438e-43 1.28224e-26
5.09324 1.25505e-27 -6.30957e-27
5.09474 1.25486e-27 -6.30862e-27
5.10249 1.25389e-27 -6.30372e-27
5.12492 1.25107e-27 -6.28954e-27
5.17355 1.24493e-27 -6.25871e-27
5.26222 1.23369e-27 -6.20218e-27
5.40603 1.21528e-27 -6.10964e-27
5.61982 1.18751e-27 -5.97002e-27
5.9164 1.14814e-27 -5.77207e-27
6.30458 1.09499e-27 -5.50486e-27
6.78702 1.02608e-27 -5.15845e-27
7.3584 9.39736e-28 -4.72437e-27
8.00393 8.34673e-28 -4.19618e-27
8.6986 7.10098e-28 -3.5699e-27
9.40737 5.65784e-28 -2.84439e-27
10.0865 4.02122e-28 -2.0216e-27
10.6861 2.20152e-28 -1.10678e-27
11.1535 2.1574e-29 -1.0846e-28
11.4379 -1.91271e-28 9.61586e-28
11.4952 -4.1544e-28 2.08856e-27
11.2928 -6.47448e-28 3.25494e-27
10.8139 -8.83357e-28 4.44093e-27
10.0613 -1.11888e-27 5.62497e-27
9.05852 -1.34948e-27 6.7843e-27
7.85035 -1.57054e-27 7.89563e-27
6.5005 -1.77745e-27 8.93585e-27
5.08776 -1.96579e-27 9.88267e-27
3.70039 -2.13141e-27 1.07153e-26
2.42931 -2.27062e-27 1.14152e-26
1.36073 -2.38027e-27 1.19664e-26
0.568902 -2.45783e-27 1.23563e-26
0.109613 -2.50153e-27 1.25761e-26
5.09324 2.46187e-27 -5.94348e-27
5.09474 2.4615e-27 -5.94259e-27
5.10249 2.45959e-27 -5.93798e-27
5.12492 2.45406e-27 -5.92462e-27
5.17355 2.44203e-27 -5.89558e-27
5.26222 2.41997e-27 -5.84232e-27
5.40603 2.38386e-27 -5.75515e-27
5.61982 2.32939e-27 -5.62364e-27
5.9164 2.25215e-27 -5.43717e-27
6.30458 2.14789e-27 -5.18547e-27
6.78702 2.01273e-27 -4.85916e-27
7.3584 1.84336e-27 -4.45026e-27
8.00393 1.63727e-27 -3.95272e-27
8.6986 1.39291e-27 -3.36278e-27
9.40737 1.10983e-27 -2.67936e-27
10.0865 7.88791e-28 -1.90431e-27
10.6861 4.31844e-28 -1.04256e-27
11.1535 4.2319e-29 -1.02167e-28
11.4379 -3.75192e-28 9.05794e-28
11.4952 -8.14915e-28 1.96738e-27
11.2928 -1.27001e-27 3.06609e-27
10.8139 -1.73277e-27 4.18327e-27
10.0613 -2.19475e-27 5.29861e-27
9.05852 -2.6471e-27 6.39067e-27
7.85035 -3.08072e-27 7.43752e-27
6.5005 -3.4866e-27 8.41739e-27
5.08776 -3.85603e-27 9.30927e-27
3.70039 -4.18091e-27 1.00936e-26
2.42931 -4.45398e-27 1.07529e-26
1.36073 -4.66906e-27 1.12721e-26
0.568902 -4.8212e-27 1.16394e-26
0.109613 -4.90693e-27 1.18464e-26
5.09324 3.57408e-27 -5.34899e-27
5.09474 3.57355e-27 -5.34819e-27
5.10249 3.57077e-27 -5.34404e-27
5.12492 3.56274e-27 -5.33201e-27
5.17355 3.54527e-27 -5.30588e-27
5.26222 3.51325e-27 -5.25795e-27
5.40603 3.46083e-27 -5.1795e-27
5.61982 3.38175e-27 -5.06114e-27
5.9164 3.26961e-27 -4.89332e-27
6.30458 3.11825e-27 -4.6668e-27
6.78702 2.92203e-27 -4.37312e-27
7.3584 2.67614e-27 -4.00513e-27
8.00393 2.37695e-27 -3.55735e-27
8.6986 2.02219e-27 -3.02642e-27
9.40737 1.61122e-27 -2.41136e-27
10.0865 1.14515e-27 -1.71383e-27
10.6861 6.26941e-28 -9.38283e-28
11.1535 6.14377e-29 -9.1948e-29
11.4379 -5.44695e-28 8.15193e-28
11.4952 -1.18307e-27 1.77059e-27
11.2928 -1.84378e-27 2.7594e-27
10.8139 -2.51559e-27 3.76484e-27
10.0613 -3.18629e-27 4.76862e-27
9.05852 -3.84299e-27 5.75145e-27
7.85035 -4.47252e-27 6.69359e-27
6.5005 -5.06175e-27 7.57545e-27
5.08776 -5.59808e-27 8.37812e-27
3.70039 -6.06974e-27 9.08401e-27
2.42931 -6.46618e-27 9.67733e-27
1.36073 -6.77842e-27 1.01446e-26
0.568902 -6.9993e-27 1.04752e-26
0.109613 -7.12376e-27 1.06615e-26
5.09324 4.54894e-27 -4.54894e-27
5.09474 4.54826e-27 -4.54826e-27
5.10249 4.54473e-27 -4.54473e-27
5.12492 4.53451e-27 -4.53451e-27
5.17355 4.51228e-27 -4.51228e-27
5.26222 4.47152e-27 -4.47152e-27
5.40603 4.4048e-27 -4.4048e-27
5.61982 4.30415e-27 -4.30415e-27
5.9164 4.16143e-27 -4.16143e-27
6.30458 3.96878e-27 -3.96878e-27
6.78702 3.71904e-27 -3.71904e-27
7.3584 3.40608e-27 -3.40608e-27
8.00393 3.02528e-27 -3.02528e-27
8.6986 2.57376e-27 -2.57376e-27
9.40737 2.05069e-27 -2.05069e-27
10.0865 1.4575e-27 -1.4575e-27
10.6861 7.97945e-28 -7.97945e-28
11.1535 7.81953e-29 -7.81953e-29
11.4379 -6.93265e-28 6.93265e-28
11.4952 -1.50577e-27 1.50577e-27
11.2928 -2.34668e-27 2.34668e-27
10.8139 -3.20174e-27 3.20174e-27
10.0613 -4.05538e-27 4.05538e-27
9.05852 -4.8912e-27 4.8912e-27
7.85035 -5.69243e-27 5.69243e-27
6.5005 -6.44239e-27 6.44239e-27
5.08776 -7.12501e-27 7.12501e-27
3.70039 -7.72531e-27 7.72531e-27
2.42931 -8.22989e-27 8.22989e-27
1.36073 -8.6273e-27 8.6273e-27
0.568902 -8.90842e-27 8.90842e-27
0.109613 -9.06683e-27 9.06683e-27
5.09324 5.34899e-27 -3.57408e-27
5.09474 5.34819e-27 -3.57355e-27
5.10249 5.34404e-27 -3.57077e-27
5.12492 5.33201e-27 -3.56274e-27
5.17355 5.30588e-27 -3.54527e-27
5.26222 5.25795e-27 -3.51325e-27
5.40603 5.1795e-27 -3.46083e-27
5.61982 5.06114e-27 -3.38175e-27
5.9164 4.89332e-27 -3.26961e-27
6.30458 4.6668e-27 -3.11825e-27
6.78702 4.37312e-27 -2.92203e-27
7.3584 4.00513e-27 -2.67614e-27
8.00393 3.55735e-27 -2.37695e-27
8.6986 3.02642e-27 -2.02219e-27
9.40737 2.41136e-27 -1.61122e-27
10.0865 1.71383e-27 -1.14515e-27
10.6861 9.38283e-28 -6.26941e-28
11.1535 9.1948e-29 -6.14377e-29
11.4379 -8.15193e-28 5.44695e-28
11.4952 -1.77059e-27 1.18307e-27
11.2928 -2.7594e-27 1.84378e-27
10.8139 -3.76484e-27 2.51559e-27
10.0613 -4.76862e-27 3.18629e-27
9.05852 -5.75145e-27 3.84299e-27
7.85035 -6.69359e-27 4.47252e-27
6.5005 -7.57545e-27 5.06175e-27
5.08776 -8.37812e-27 5.59808e-27
3.70039 -9.08401e-27 6.06974e-27
2.42931 -9.67733e-27 6.46618e-27
1.36073 -1.01446e-26 6.77842e-27
0.568902 -1.04752e-26 6.9993e-27
0.109613 -1.06615e-26 7.12376e-27
5.09324 5.94348e-27 -2.46187e-27
5.09474 5.94259e-27 -2.4615e-27
5.10249 5.93798e-27 -2.45959e-27
5.12492 5.92462e-27 -2.45406e-27
5.17355 5.89558e-27 -2.44203e-27
5.26222 5.84232e-27 -2.41997e-27
5.40603 5.75515e-27 -2.38386e-27
5.61982 5.62364e-27 -2.32939e-27
5.9164 5.43717e-27 -2.25215e-27
6.30458 5.18547e-27 -2.14789e-27
6.78702 4.85916e-27 -2.01273e-27
7.3584 4.45026e-27 -1.84336e-27
8.00393 3.95272e-27 -1.63727e-27
8.6986 3.36278e-27 -1.39291e-27
9.40737 2.67936e-27 -1.10983e-27
10.0865 1.90431e-27 -7.88791e-28
10.6861 1.04256e-27 -4.31844e-28
11.1535 1.02167e-28 -4.2319e-29
11.4379 -9.05794e-28 3.75192e-28
11.4952 -1.96738e-27 8.14915e-28
11.2928 -3.06609e-27 1.27001e-27
10.8139 -4.18327e-27 1.73277e-27
10.0613 -5.29861e-27 2.19475e-27
9.05852 -6.39067e-27 2.6471e-27
7.85035 -7.43752e-27 3.08072e-27
6.5005 -8.41739e-27 3.4866e-27
5.08776 -9.30927e-27 3.85603e-27
3.70039 -1.00936e-26 4.18091e-27
2.42931 -1.07529e-26 4.45398e-27
1.36073 -1.12721e-26 4.66906e-27
0.568902 -1.16394e-26 4.8212e-27
0.109613 -1.18464e-26 4.90693e-27
5.09324 6.30957e-27 -1.25505e-27
5.09474 6.30862e-27 -1.25486e-27
5.10249 6.30372e-27 -1.25389e-27
5.12492 6.28954e-27 -1.25107e-27
5.17355 6.25871e-27 -1.24493e-27
5.26222 6.20218e-27 -1.23369e-27
5.40603 6.10964e-27 -1.21528e-27
5.61982 5.97002e-27 -1.18751e-27
5.9164 5.77207e-27 -1.14814e-27
6.30458 5.50486e-27 -1.09499e-27
6.78702 5.15845e-27 -1.02608e-27
7.3584 4.72437e-27 -9.39736e-28
8.00393 4.19618e-27 -8.34673e-28
8.6986 3.5699e-27 -7.10098e-28
9.40737 2.84439e-27 -5.65784e-28
10.0865 2.0216e-27 -4.02122e-28
10.6861 1.10678e-27 -2.20152e-28
11.1535 1.0846e-28 -2.1574e-29
11.4379 -9.61586e-28 1.91271e-28
11.4952 -2.08856e-27 4.1544e-28
11.2928 -3.25494e-27 6.47448e-28
10.8139 -4.44093e-27 8.83357e-28
10.0613 -5.62497e-27 1.11888e-27
9.05852 -6.7843e-27 1.34948e-27
7.85035 -7.89563e-27 1.57054e-27
6.5005 -8.93585e-27 1.77745e-27
5.08776 -9.88267e-27 1.96579e-27
3.70039 -1.07153e-26 2.13141e-27
2.42931 -1.14152e-26 2.27062e-27
1.36073 -1.19664e-26 2.38027e-27
0.568902 -1.23563e-26 2.45783e-27
0.109613 -1.25761e-26 2.50153e-27
5.09324 6.43318e-27 -7.87768e-43
5.09474 6.43221e-27 -7.87355e-43
5.10249 6.42722e-27 -7.86217e-43
5.12492 6.41276e-27 -7.83694e-43
5.17355 6.38132e-27 -7.78875e-43
5.26222 6.32369e-27 -7.70644e-43
5.40603 6.22933e-27 -7.57736e-43
5.61982 6.08698e-27 -7.38795e-43
5.9164 5.88515e-27 -7.12451e-43
6.30458 5.61271e-27 -6.77385e-43
6.78702 5.25951e-27 -6.32404e-43
7.3584 4.81693e-27 -5.76509e-43
8.00393 4.27839e-27 -5.08956e-43
8.6986 3.63984e-27 -4.29314e-43
9.40737 2.90011e-27 -3.37502e-43
10.0865 2.06121e-27 -2.33826e-43
10.6861 1.12846e-27 -1.18989e-43
11.1535 1.10585e-28 5.90317e-45
11.4379 -9.80425e-28 1.39355e-43
11.4952 -2.12947e-27 2.79512e-43
11.2928 -3.31871e-27 4.24197e-43
10.8139 -4.52794e-27 5.70971e-43
10.0613 -5.73517e-27 7.17189e-43
9.05852 -6.91721e-27 8.60078e-43
7.85035 -8.05032e-27 9.96815e-43
6.5005 -9.11092e-27 1.1246e-42
5.08776 -1.00763e-26 1.24076e-42
3.70039 -1.09252e-26 1.34279e-42
2.42931 -1.16388e-26 1.42848e-42
1.36073 -1.22008e-26 1.49591e-42
0.568902 -1.25984e-26 1.54358e-42
0.109613 -1.28224e-26 1.57043e-42
5.09324 6.30957e-27 1.25505e-27
5.09474 6.30862e-27 1.25486e-27
5.10249 6.30372e-27 1.25389e-27
5.12492 6.28954e-27 1.25107e-27
5.17355 6.25871e-27 1.24493e-27
5.26222 6.20218e-27 1.23369e-27
5.40603 6.10964e-27 1.21528e-27
5.61982 5.97002e-27 1.18751e-27
5.9164 5.77207e-27 1.14814e-27
6.30458 5.50486e-27 1.09499e-27
6.78702 5.15845e-27 1.02608e-27
7.3584 4.72437e-27 9.39736e-28
8.00393 4.19618e-27 8.34673e-28
8.6986 3.5699e-27 7.10098e-28
9.40737 2.84439e-27 5.65784e-28
10.0865 2.0216e-27 4.02122e-28
10.6861 1.10678e-27 2.20152e-28
11.1535 1.0846e-28 2.1574e-29
11.4379 -9.61586e-28 -1.91271e-28
11.4952 -2.08856e-27 -4.1544e-28
11.2928 -3.25494e-27 -6.47448e-28
10.8139 -4.44093e-27 -8.83357e-28
10.0613 -5.62497e-27 -1.11888e-27
9.05852 -6.7843e-27 -1.34948e-27
7.85035 -7.89563e-27 -1.57054e-27
6.5005 -8.93585e-27 -1.77745e-27
5.08776 -9.88267e-27 -1.96579e-27
3.70039 -1.07153e-26 -2.13141e-27
2.42931 -1.14152e-26 -2.27062e-27
1.36073 -1.19664e-26 -2.38027e-27
0.568902 -1.23563e-26 -2.45783e-27
0.109613 -1.25761e-26 -2.50153e-27
5.09324 5.94348e-27 2.46187e-27
5.09474 5.94259e-27 2.4615e-27
5.10249 5.93798e-27 2.45959e-27
5.12492 5.92462e-27 2.45406e-27
5.17355 5.89558e-27 2.44203e-27
5.26222 5.84232e-27 2.41997e-27
5.40603 5.75515e-27 2.38386e-27
5.61982 5.62364e-27 2.32939e-27
5.9164 5.43717e-27 2.25215e-27
6.30458 5.18547e-27 2.14789e-27
6.78702 4.85916e-27 2.01273e-27
7.3584 4.45026e-27 1.84336e-27
8.00393 3.95272e-27 1.63727e-27
8.6986 3.36278e-27 1.39291e-27