# vtk DataFile Version 3.0
LifeV output
ASCII
DATASET UNSTRUCTURED_GRID
POINTS 25600 float
0 0.000684035 0
0 0.00359712 0
0 0.00880944 0
0 0.0162735 0
0 0.0259197 0
0 0.0376581 0
0 0.0513791 0
0 0.0669545 0
0 0.0842389 0
0 0.103071 0
0 0.123275 0
0 0.144662 0
0 0.167033 0
0 0.190178 0
0 0.213882 0
0 0.237923 0
0 0.262077 0
0 0.286118 0
0 0.309822 0
0 0.332967 0
0 0.355338 0
0 0.376725 0
0 0.396929 0
0 0.415761 0
0 0.433046 0
0 0.448621 0
0 0.462342 0
0 0.47408 0
0 0.483727 0
0 0.491191 0
0 0.496403 0
0 0.499316 0
0 0.000670891 0.000133449
0 0.003528 0.000701764
0 0.00864017 0.00171864
0 0.0159608 0.0031748
0 0.0254217 0.00505668
0 0.0369345 0.00734673
0 0.0503918 0.0100236
0 0.065668 0.0130622
0 0.0826203 0.0164342
0 0.101091 0.0201082
0 0.120906 0.0240498
0 0.141883 0.0282222
0 0.163823 0.0325865
0 0.186524 0.0371019
0 0.209772 0.0417263
0 0.233351 0.0464165
0 0.257041 0.0511287
0 0.28062 0.0558189
0 0.303869 0.0604432
0 0.326569 0.0649587
0 0.34851 0.069323
0 0.369486 0.0734954
0 0.389302 0.077437
0 0.407772 0.081111
0 0.424725 0.084483
0 0.440001 0.0875216
0 0.453458 0.0901984
0 0.464971 0.0924885
0 0.474432 0.0943704
0 0.481752 0.0958265
0 0.486865 0.0968434
0 0.489722 0.0974117
0 0.000631966 0.000261769
0 0.00332331 0.00137656
0 0.00813886 0.00337123
0 0.0150347 0.00622759
0 0.0239467 0.00991904
0 0.0347915 0.0144111
0 0.0474681 0.0196619
0 0.0618579 0.0256224
0 0.0778266 0.0322368
0 0.0952252 0.0394436
0 0.113891 0.0471753
0 0.13365 0.0553598
0 0.154318 0.0639207
0 0.175702 0.072778
0 0.197601 0.0818491
0 0.219812 0.0910492
0 0.242127 0.100292
0 0.264339 0.109493
0 0.286238 0.118564
0 0.307622 0.127421
0 0.328289 0.135982
0 0.348048 0.144166
0 0.366715 0.151898
0 0.384113 0.159105
0 0.400082 0.165719
0 0.414472 0.17168
0 0.427148 0.176931
0 0.437993 0.181423
0 0.446905 0.185114
0 0.453801 0.18797
0 0.458616 0.189965
0 0.461308 0.19108
0 0.000568754 0.000380029
0 0.0029909 0.00199845
0 0.00732478 0.00489426
0 0.0135309 0.00904106
0 0.0215515 0.0144002
0 0.0313116 0.0209217
0 0.0427201 0.0285447
0 0.0556706 0.0371979
0 0.0700421 0.0468006
0 0.0857005 0.0572632
0 0.102499 0.0684879
0 0.120282 0.08037
0 0.138883 0.0927985
0 0.158127 0.105657
0 0.177836 0.118826
0 0.197826 0.132183
0 0.217909 0.145602
0 0.237898 0.158959
0 0.257607 0.172128
0 0.276852 0.184987
0 0.295453 0.197415
0 0.313235 0.209297
0 0.330034 0.220522
0 0.345693 0.230984
0 0.360064 0.240587
0 0.373015 0.24924
0 0.384423 0.256863
0 0.394183 0.263385
0 0.402204 0.268744
0 0.40841 0.272891
0 0.412744 0.275787
0 0.415166 0.277405
0 0.000483685 0.000483685
0 0.00254355 0.00254355
0 0.00622921 0.00622921
0 0.0115071 0.0115071
0 0.018328 0.018328
0 0.0266283 0.0266283
0 0.0363305 0.0363305
0 0.047344 0.047344
0 0.0595659 0.0595659
0 0.0728822 0.0728822
0 0.0871686 0.0871686
0 0.102292 0.102292
0 0.11811 0.11811
0 0.134476 0.134476
0 0.151237 0.151237
0 0.168237 0.168237
0 0.185316 0.185316
0 0.202316 0.202316
0 0.219077 0.219077
0 0.235443 0.235443
0 0.251262 0.251262
0 0.266385 0.266385
0 0.280671 0.280671
0 0.293987 0.293987
0 0.306209 0.306209
0 0.317223 0.317223
0 0.326925 0.326925
0 0.335225 0.335225
0 0.342046 0.342046
0 0.347324 0.347324
0 0.35101 0.35101
0 0.35307 0.35307
0 0.000380029 0.000568754
0 0.00199845 0.0029909
0 0.00489426 0.00732478
0 0.00904106 0.0135309
0 0.0144002 0.0215515
0 0.0209217 0.0313116
0 0.0285447 0.0427201
0 0.0371979 0.0556706
0 0.0468006 0.0700421
0 0.0572632 0.0857005
0 0.0684879 0.102499
0 0.08037 0.120282
0 0.0927985 0.138883
0 0.105657 0.158127
0 0.118826 0.177836
0 0.132183 0.197826
0 0.145602 0.217909
0 0.158959 0.237898
0 0.172128 0.257607
0 0.184987 0.276852
0 0.197415 0.295453
0 0.209297 0.313235
0 0.220522 0.330034
0 0.230984 0.345693
0 0.240587 0.360064
0 0.24924 0.373015
0 0.256863 0.384423
0 0.263385 0.394183
0 0.268744 0.402204
0 0.272891 0.40841
0 0.275787 0.412744
0 0.277405 0.415166
0 0.000261769 0.000631966
0 0.00137656 0.00332331
0 0.00337123 0.00813886
0 0.00622759 0.0150347
0 0.00991904 0.0239467
0 0.0144111 0.0347915
0 0.0196619 0.0474681
0 0.0256224 0.0618579
0 0.0322368 0.0778266
0 0.0394436 0.0952252
0 0.0471753 0.113891
0 0.0553598 0.13365
0 0.0639207 0.154318
0 0.072778 0.175702
0 0.0818491 0.197601
0 0.0910492 0.219812
0 0.100292 0.242127
0 0.109493 0.264339
0 0.118564 0.286238
0 0.127421 0.307622
0 0.135982 0.328289
0 0.144166 0.348048
0 0.151898 0.366715
0 0.159105 0.384113
0 0.165719 0.400082
0 0.17168 0.414472
0 0.176931 0.427148
0 0.181423 0.437993
0 0.185114 0.446905
0 0.18797 0.453801
0 0.189965 0.458616
0 0.19108 0.461308
0 0.000133449 0.000670891
0 0.000701764 0.003528
0 0.00171864 0.00864017
0 0.0031748 0.0159608
0 0.00505668 0.0254217
0 0.00734673 0.0369345
0 0.0100236 0.0503918
0 0.0130622 0.065668
0 0.0164342 0.0826203
0 0.0201082 0.101091
0 0.0240498 0.120906
0 0.0282222 0.141883
0 0.0325865 0.163823
0 0.0371019 0.186524
0 0.0417263 0.209772
0 0.0464165 0.233351
0 0.0511287 0.257041
0 0.0558189 0.28062
0 0.0604432 0.303869
0 0.0649587 0.326569
0 0.069323 0.34851
0 0.0734954 0.369486
0 0.077437 0.389302
0 0.081111 0.407772
0 0.084483 0.424725
0 0.0875216 0.440001
0 0.0901984 0.453458
0 0.0924885 0.464971
0 0.0943704 0.474432
0 0.0958265 0.481752
0 0.0968434 0.486865
0 0.0974117 0.489722
0 4.1885e-20 0.000684035
0 2.2026e-19 0.00359712
0 5.39422e-19 0.00880944
0 9.96463e-19 0.0162735
0 1.58712e-18 0.0259197
0 2.30589e-18 0.0376581
0 3.14606e-18 0.0513791
0 4.09978e-18 0.0669545
0 5.15815e-18 0.0842389
0 6.31128e-18 0.103071
0 7.54842e-18 0.123275
0 8.858e-18 0.144662
0 1.02278e-17 0.167033
0 1.16451e-17 0.190178
0 1.30965e-17 0.213882
0 1.45686e-17 0.237923
0 1.60476e-17 0.262077
0 1.75197e-17 0.286118
0 1.89711e-17 0.309822
0 2.03884e-17 0.332967
0 2.17582e-17 0.355338
0 2.30678e-17 0.376725
0 2.43049e-17 0.396929
0 2.5458e-17 0.415761
0 2.65164e-17 0.433046
0 2.74701e-17 0.448621
0 2.83103e-17 0.462342
0 2.9029e-17 0.47408
0 2.96197e-17 0.483727
0 3.00767e-17 0.491191
0 3.03959e-17 0.496403
0 3.05743e-17 0.499316
0 -0.000133449 0.000670891
0 -0.000701764 0.003528
0 -0.00171864 0.00864017
0 -0.0031748 0.0159608
0 -0.00505668 0.0254217
0 -0.00734673 0.0369345
0 -0.0100236 0.0503918
0 -0.0130622 0.065668
0 -0.0164342 0.0826203
0 -0.0201082 0.101091
0 -0.0240498 0.120906
0 -0.0282222 0.141883
0 -0.0325865 0.163823
0 -0.0371019 0.186524
0 -0.0417263 0.209772
0 -0.0464165 0.233351
0 -0.0511287 0.257041
0 -0.0558189 0.28062
0 -0.0604432 0.303869
0 -0.0649587 0.326569
0 -0.069323 0.34851
0 -0.0734954 0.369486
0 -0.077437 0.389302
0 -0.081111 0.407772
0 -0.084483 0.424725
0 -0.0875216 0.440001
0 -0.0901984 0.453458
0 -0.0924885 0.464971
0 -0.0943704 0.474432
0 -0.0958265 0.481752
0 -0.0968434 0.486865
0 -0.0974117 0.489722
0 -0.000261769 0.000631966
0 -0.00137656 0.00332331
0 -0.00337123 0.00813886
0 -0.00622759 0.0150347
0 -0.00991904 0.0239467
0 -0.0144111 0.0347915
0 -0.0196619 0.0474681
0 -0.0256224 0.0618579
0 -0.0322368 0.0778266
0 -0.0394436 0.0952252
0 -0.0471753 0.113891
0 -0.0553598 0.13365
0 -0.0639207 0.154318
0 -0.072778 0.175702
0 -0.0818491 0.197601
0 -0.0910492 0.219812
0 -0.100292 0.242127
0 -0.109493 0.264339
0 -0.118564 0.286238
0 -0.127421 0.307622
0 -0.135982 0.328289
0 -0.144166 0.348048
0 -0.151898 0.366715
0 -0.159105 0.384113
0 -0.165719 0.400082
0 -0.17168 0.414472
0 -0.176931 0.427148
0 -0.181423 0.437993
0 -0.185114 0.446905
0 -0.18797 0.453801
0 -0.189965 0.458616
0 -0.19108 0.461308
0 -0.000380029 0.000568754
0 -0.00199845 0.0029909
0 -0.00489426 0.00732478
0 -0.00904106 0.0135309
0 -0.0144002 0.0215515
0 -0.0209217 0.0313116
0 -0.0285447 0.0427201
0 -0.0371979 0.0556706
0 -0.0468006 0.0700421
0 -0.0572632 0.0857005
0 -0.0684879 0.102499
0 -0.08037 0.120282
0 -0.0927985 0.138883
0 -0.105657 0.158127
0 -0.118826 0.177836
0 -0.132183 0.197826
0 -0.145602 0.217909
0 -0.158959 0.237898
0 -0.172128 0.257607
0 -0.184987 0.276852
0 -0.197415 0.295453
0 -0.209297 0.313235
0 -0.220522 0.330034
0 -0.230984 0.345693
0 -0.240587 0.360064
0 -0.24924 0.373015
0 -0.256863 0.384423
0 -0.263385 0.394183
0 -0.268744 0.402204
0 -0.272891 0.40841
0 -0.275787 0.412744
0 -0.277405 0.415166
0 -0.000483685 0.000483685
0 -0.00254355 0.00254355
0 -0.00622921 0.00622921
0 -0.0115071 0.0115071
0 -0.018328 0.018328
0 -0.0266283 0.0266283
0 -0.0363305 0.0363305
0 -0.047344 0.047344
0 -0.0595659 0.0595659
0 -0.0728822 0.0728822
0 -0.0871686 0.0871686
0 -0.102292 0.102292
0 -0.11811 0.11811
0 -0.134476 0.134476
0 -0.151237 0.151237
0 -0.168237 0.168237
0 -0.185316 0.185316
0 -0.202316 0.202316
0 -0.219077 0.219077
0 -0.235443 0.235443
0 -0.251262 0.251262
0 -0.266385 0.266385
0 -0.280671 0.280671
0 -0.293987 0.293987
0 -0.306209 0.306209
0 -0.317223 0.317223
0 -0.326925 0.326925
0 -0.335225 0.335225
0 -0.342046 0.342046
0 -0.347324 0.347324
0 -0.35101 0.35101
0 -0.35307 0.35307
0 -0.000568754 0.000380029
0 -0.0029909 0.00199845
0 -0.00732478 0.00489426
0 -0.0135309 0.00904106
0 -0.0215515 0.0144002
0 -0.0313116 0.0209217
0 -0.0427201 0.0285447
0 -0.0556706 0.0371979
0 -0.0700421 0.0468006
0 -0.0857005 0.0572632
0 -0.102499 0.0684879
0 -0.120282 0.08037
0 -0.138883 0.0927985
0 -0.158127 0.105657
0 -0.177836 0.118826
0 -0.197826 0.132183
0 -0.217909 0.145602
0 -0.237898 0.158959
0 -0.257607 0.172128
0 -0.276852 0.184987
0 -0.295453 0.197415
0 -0.313235 0.209297
0 -0.330034 0.220522
0 -0.345693 0.230984
0 -0.360064 0.240587
0 -0.373015 0.24924
0 -0.384423 0.256863
0 -0.394183 0.263385
0 -0.402204 0.268744
0 -0.40841 0.272891
0 -0.412744 0.275787
0 -0.415166 0.277405
0 -0.000631966 0.000261769
0 -0.00332331 0.00137656
[...]
POINT_DATA 25600
FIELD FieldData 1
Velocity 3 25600 double
5.10639 -1.28803e-26 1.23114e-46
5.10788 -1.28783e-26 6.47386e-46
5.11562 -1.28683e-26 1.58505e-45
5.13801 -1.28394e-26 2.92584e-45
5.18653 -1.27765e-26 4.65256e-45
5.27503 -1.26611e-26 6.73936e-45
5.41855 -1.24723e-26 9.14969e-45
5.6319 -1.21874e-26 1.18346e-44
5.92788 -1.17835e-26 1.47312e-44
6.31524 -1.12383e-26 1.77627e-44
6.79667 -1.05315e-26 2.08387e-44
7.36682 -9.64581e-27 2.38572e-44
8.01093 -8.56808e-27 2.6708e-44
8.704 -7.29021e-27 2.92769e-44
9.41104 -5.80986e-27 3.14511e-44
10.0884 -4.13104e-27 3.31259e-44
10.6862 -2.26442e-27 3.42101e-44
11.1519 -2.27439e-28 3.46336e-44
11.4348 1.9559e-27 3.43521e-44
11.4909 4.25538e-27 3.3352e-44
11.2875 6.63528e-27 3.16537e-44
10.808 9.0552e-27 2.93125e-44
10.0551 1.14711e-26 2.64179e-44
9.05249 1.38366e-26 2.30903e-44
7.84478 1.61042e-26 1.94763e-44
6.49564 1.82267e-26 1.57416e-44
5.08381 2.01586e-26 1.20626e-44
3.69743 2.18575e-26 8.61722e-45
2.42732 2.32856e-26 5.57501e-45
1.3596 2.44103e-26 3.08778e-45
0.568423 2.52059e-26 1.2809e-45
0.10952 2.56542e-26 2.45724e-46
5.10639 -1.26328e-26 -2.51281e-27
5.10788 -1.26309e-26 -2.51244e-27
5.11562 -1.26211e-26 -2.51049e-27
5.13801 -1.25927e-26 -2.50484e-27
5.18653 -1.2531e-26 -2.49257e-27
5.27503 -1.24179e-26 -2.47006e-27
5.41855 -1.22327e-26 -2.43323e-27
5.6319 -1.19533e-26 -2.37765e-27
5.92788 -1.15571e-26 -2.29885e-27
6.31524 -1.10224e-26 -2.19249e-27
6.79667 -1.03291e-26 -2.05459e-27
7.36682 -9.46047e-27 -1.8818e-27
8.01093 -8.40345e-27 -1.67155e-27
8.704 -7.15013e-27 -1.42225e-27
9.41104 -5.69823e-27 -1.13345e-27
10.0884 -4.05166e-27 -8.05926e-28
10.6862 -2.22091e-27 -4.41767e-28
11.1519 -2.23068e-28 -4.43711e-29
11.4348 1.91832e-27 3.81577e-28
11.4909 4.17362e-27 8.30184e-28
11.2875 6.50779e-27 1.29448e-27
10.808 8.88121e-27 1.76658e-27
10.0551 1.12507e-26 2.2379e-27
9.05249 1.35708e-26 2.69939e-27
7.84478 1.57948e-26 3.14178e-27
6.49564 1.78765e-26 3.55585e-27
5.08381 1.97712e-26 3.93275e-27
3.69743 2.14375e-26 4.26419e-27
2.42732 2.28381e-26 4.54279e-27
1.3596 2.39412e-26 4.76221e-27
0.568423 2.47216e-26 4.91743e-27
0.10952 2.51613e-26 5.00489e-27
5.10639 -1.18998e-26 -4.92906e-27
5.10788 -1.1898e-26 -4.92832e-27
5.11562 -1.18888e-26 -4.9245e-27
5.13801 -1.18621e-26 -4.91342e-27
5.18653 -1.18039e-26 -4.88935e-27
5.27503 -1.16974e-26 -4.84521e-27
5.41855 -1.15229e-26 -4.77295e-27
5.6319 -1.12597e-26 -4.66393e-27
5.92788 -1.08866e-26 -4.50936e-27
6.31524 -1.03829e-26 -4.30072e-27
6.79667 -9.72984e-27 -4.03023e-27
7.36682 -8.91156e-27 -3.69129e-27
8.01093 -7.91588e-27 -3.27886e-27
8.704 -6.73528e-27 -2.78984e-27
9.41104 -5.36761e-27 -2.22334e-27
10.0884 -3.81658e-27 -1.58088e-27
10.6862 -2.09206e-27 -8.66558e-28
11.1519 -2.10126e-28 -8.70369e-29
11.4348 1.80701e-27 7.48489e-28
11.4909 3.93146e-27 1.62846e-27
11.2875 6.1302e-27 2.53921e-27
10.808 8.36592e-27 3.46528e-27
10.0551 1.05979e-26 4.38981e-27
9.05249 1.27834e-26 5.29505e-27
7.84478 1.48784e-26 6.16281e-27
6.49564 1.68393e-26 6.97505e-27
5.08381 1.86241e-26 7.71436e-27
3.69743 2.01937e-26 8.36452e-27
2.42732 2.1513e-26 8.911e-27
1.3596 2.25521e-26 9.3414e-27
0.568423 2.32872e-26 9.64588e-27
0.10952 2.37014e-26 9.81744e-27
5.10639 -1.07095e-26 -7.15588e-27
5.10788 -1.07079e-26 -7.15481e-27
5.11562 -1.06996e-26 -7.14926e-27
5.13801 -1.06756e-26 -7.13318e-27
5.18653 -1.06233e-26 -7.09823e-27
5.27503 -1.05273e-26 -7.03415e-27
5.41855 -1.03703e-26 -6.92925e-27
5.6319 -1.01335e-26 -6.77098e-27
5.92788 -9.79765e-27 -6.54658e-27
6.31524 -9.34433e-27 -6.24368e-27
6.79667 -8.75663e-27 -5.85099e-27
7.36682 -8.0202e-27 -5.35892e-27
8.01093 -7.1241e-27 -4.76017e-27
8.704 -6.06159e-27 -4.05022e-27
9.41104 -4.83072e-27 -3.22779e-27
10.0884 -3.43484e-27 -2.29508e-27
10.6862 -1.8828e-27 -1.25805e-27
11.1519 -1.89108e-28 -1.26358e-28
11.4348 1.62627e-27 1.08664e-27
11.4909 3.53822e-27 2.36416e-27
11.2875 5.51704e-27 3.68637e-27
10.808 7.52913e-27 5.0308e-27
10.0551 9.53789e-27 6.37301e-27
9.05249 1.15047e-26 7.68722e-27
7.84478 1.33902e-26 8.94702e-27
6.49564 1.51549e-26 1.01262e-26
5.08381 1.67613e-26 1.11995e-26
3.69743 1.81739e-26 1.21434e-26
2.42732 1.93612e-26 1.29368e-26
1.3596 2.02964e-26 1.35616e-26
0.568423 2.09579e-26 1.40036e-26
0.10952 2.13307e-26 1.42527e-26
5.10639 -9.10771e-27 -9.10771e-27
5.10788 -9.10635e-27 -9.10635e-27
5.11562 -9.09928e-27 -9.09928e-27
5.13801 -9.07882e-27 -9.07882e-27
5.18653 -9.03434e-27 -9.03434e-27
5.27503 -8.95277e-27 -8.95277e-27
5.41855 -8.81926e-27 -8.81926e-27
5.6319 -8.61782e-27 -8.61782e-27
5.92788 -8.33221e-27 -8.33221e-27
6.31524 -7.9467e-27 -7.9467e-27
6.79667 -7.4469e-27 -7.4469e-27
7.36682 -6.82062e-27 -6.82062e-27
8.01093 -6.05855e-27 -6.05855e-27
8.704 -5.15496e-27 -5.15496e-27
9.41104 -4.10819e-27 -4.10819e-27
10.0884 -2.92109e-27 -2.92109e-27
10.6862 -1.60119e-27 -1.60119e-27
11.1519 -1.60823e-28 -1.60823e-28
11.4348 1.38303e-27 1.38303e-27
11.4909 3.00901e-27 3.00901e-27
11.2875 4.69185e-27 4.69185e-27
10.808 6.40299e-27 6.40299e-27
10.0551 8.11131e-27 8.11131e-27
9.05249 9.78397e-27 9.78397e-27
7.84478 1.13874e-26 1.13874e-26
6.49564 1.28882e-26 1.28882e-26
5.08381 1.42543e-26 1.42543e-26
3.69743 1.54556e-26 1.54556e-26
2.42732 1.64654e-26 1.64654e-26
1.3596 1.72607e-26 1.72607e-26
0.568423 1.78233e-26 1.78233e-26
0.10952 1.81403e-26 1.81403e-26
5.10639 -7.15588e-27 -1.07095e-26
5.10788 -7.15481e-27 -1.07079e-26
5.11562 -7.14926e-27 -1.06996e-26
5.13801 -7.13318e-27 -1.06756e-26
5.18653 -7.09823e-27 -1.06233e-26
5.27503 -7.03415e-27 -1.05273e-26
5.41855 -6.92925e-27 -1.03703e-26
5.6319 -6.77098e-27 -1.01335e-26
5.92788 -6.54658e-27 -9.79765e-27
6.31524 -6.24368e-27 -9.34433e-27
6.79667 -5.85099e-27 -8.75663e-27
7.36682 -5.35892e-27 -8.0202e-27
8.01093 -4.76017e-27 -7.1241e-27
8.704 -4.05022e-27 -6.06159e-27
9.41104 -3.22779e-27 -4.83072e-27
10.0884 -2.29508e-27 -3.43484e-27
10.6862 -1.25805e-27 -1.8828e-27
11.1519 -1.26358e-28 -1.89108e-28
11.4348 1.08664e-27 1.62627e-27
11.4909 2.36416e-27 3.53822e-27
11.2875 3.68637e-27 5.51704e-27
10.808 5.0308e-27 7.52913e-27
10.0551 6.37301e-27 9.53789e-27
9.05249 7.68722e-27 1.15047e-26
7.84478 8.94702e-27 1.33902e-26
6.49564 1.01262e-26 1.51549e-26
5.08381 1.11995e-26 1.67613e-26
3.69743 1.21434e-26 1.81739e-26
2.42732 1.29368e-26 1.93612e-26
1.3596 1.35616e-26 2.02964e-26
0.568423 1.40036e-26 2.09579e-26
0.10952 1.42527e-26 2.13307e-26
5.10639 -4.92906e-27 -1.18998e-26
5.10788 -4.92832e-27 -1.1898e-26
5.11562 -4.9245e-27 -1.18888e-26
5.13801 -4.91342e-27 -1.18621e-26
5.18653 -4.88935e-27 -1.18039e-26
5.27503 -4.84521e-27 -1.16974e-26
5.41855 -4.77295e-27 -1.15229e-26
5.6319 -4.66393e-27 -1.12597e-26
5.92788 -4.50936e-27 -1.08866e-26
6.31524 -4.30072e-27 -1.03829e-26
6.79667 -4.03023e-27 -9.72984e-27
7.36682 -3.69129e-27 -8.91156e-27
8.01093 -3.27886e-27 -7.91588e-27
8.704 -2.78984e-27 -6.73528e-27
9.41104 -2.22334e-27 -5.36761e-27
10.0884 -1.58088e-27 -3.81658e-27
10.6862 -8.66558e-28 -2.09206e-27
11.1519 -8.70369e-29 -2.10126e-28
11.4348 7.48489e-28 1.80701e-27
11.4909 1.62846e-27 3.93146e-27
11.2875 2.53921e-27 6.1302e-27
10.808 3.46528e-27 8.36592e-27
10.0551 4.38981e-27 1.05979e-26
9.05249 5.29505e-27 1.27834e-26
7.84478 6.16281e-27 1.48784e-26
6.49564 6.97505e-27 1.68393e-26
5.08381 7.71436e-27 1.86241e-26
3.69743 8.36452e-27 2.01937e-26
2.42732 8.911e-27 2.1513e-26
1.3596 9.3414e-27 2.25521e-26
0.568423 9.64588e-27 2.32872e-26
0.10952 9.81744e-27 2.37014e-26
5.10639 -2.51281e-27 -1.26328e-26
5.10788 -2.51244e-27 -1.26309e-26
5.11562 -2.51049e-27 -1.26211e-26
5.13801 -2.50484e-27 -1.25927e-26
5.18653 -2.49257e-27 -1.2531e-26
5.27503 -2.47006e-27 -1.24179e-26
5.41855 -2.43323e-27 -1.22327e-26
5.6319 -2.37765e-27 -1.19533e-26
5.92788 -2.29885e-27 -1.15571e-26
6.31524 -2.19249e-27 -1.10224e-26
6.79667 -2.05459e-27 -1.03291e-26
7.36682 -1.8818e-27 -9.46047e-27
8.01093 -1.67155e-27 -8.40345e-27
8.704 -1.42225e-27 -7.15013e-27
9.41104 -1.13345e-27 -5.69823e-27
10.0884 -8.05926e-28 -4.05166e-27
10.6862 -4.41767e-28 -2.22091e-27
11.1519 -4.43711e-29 -2.23068e-28
11.4348 3.81577e-28 1.91832e-27
11.4909 8.30184e-28 4.17362e-27
11.2875 1.29448e-27 6.50779e-27
10.808 1.76658e-27 8.88121e-27
10.0551 2.2379e-27 1.12507e-26
9.05249 2.69939e-27 1.35708e-26
7.84478 3.14178e-27 1.57948e-26
6.49564 3.55585e-27 1.78765e-26
5.08381 3.93275e-27 1.97712e-26
3.69743 4.26419e-27 2.14375e-26
2.42732 4.54279e-27 2.28381e-26
1.3596 4.76221e-27 2.39412e-26
0.568423 4.91743e-27 2.47216e-26
0.10952 5.00489e-27 2.51613e-26
5.10639 -7.87443e-43 -1.28803e-26
5.10788 -7.82022e-43 -1.28783e-26
5.11562 -7.71925e-43 -1.28683e-26
5.13801 -7.56591e-43 -1.28394e-26
5.18653 -7.35273e-43 -1.27765e-26
5.27503 -7.07102e-43 -1.26611e-26
5.41855 -6.71159e-43 -1.24723e-26
5.6319 -6.26559e-43 -1.21874e-26
5.92788 -5.72526e-43 -1.17835e-26
6.31524 -5.08479e-43 -1.12383e-26
6.79667 -4.34085e-43 -1.05315e-26
7.36682 -3.49319e-43 -9.64581e-27
8.01093 -2.54491e-43 -8.56808e-27
8.704 -1.5026e-43 -7.29021e-27
9.41104 -3.76218e-44 -5.80986e-27
10.0884 8.2116e-44 -4.13104e-27
10.6862 2.07381e-43 -2.26442e-27
11.1519 3.36394e-43 -2.27439e-28
11.4348 4.67237e-43 1.9559e-27
11.4909 5.97924e-43 4.25538e-27
11.2875 7.26473e-43 6.63528e-27
10.808 8.50969e-43 9.0552e-27
10.0551 9.69622e-43 1.14711e-26
9.05249 1.08081e-42 1.38366e-26
7.84478 1.1831e-42 1.61042e-26
6.49564 1.27529e-42 1.82267e-26
5.08381 1.35637e-42 2.01586e-26
3.69743 1.42555e-42 2.18575e-26
2.42732 1.48222e-42 2.32856e-26
1.3596 1.52593e-42 2.44103e-26
0.568423 1.55637e-42 2.52059e-26
0.10952 1.57335e-42 2.56542e-26
5.10639 2.51281e-27 -1.26328e-26
5.10788 2.51244e-27 -1.26309e-26
5.11562 2.51049e-27 -1.26211e-26
5.13801 2.50484e-27 -1.25927e-26
5.18653 2.49257e-27 -1.2531e-26
5.27503 2.47006e-27 -1.24179e-26
5.41855 2.43323e-27 -1.22327e-26
5.6319 2.37765e-27 -1.19533e-26
5.92788 2.29885e-27 -1.15571e-26
6.31524 2.19249e-27 -1.10224e-26
6.79667 2.05459e-27 -1.03291e-26
7.36682 1.8818e-27 -9.46047e-27
8.01093 1.67155e-27 -8.40345e-27
8.704 1.42225e-27 -7.15013e-27
9.41104 1.13345e-27 -5.69823e-27
10.0884 8.05926e-28 -4.05166e-27
10.6862 4.41767e-28 -2.22091e-27
11.1519 4.43711e-29 -2.23068e-28
11.4348 -3.81577e-28 1.91832e-27
11.4909 -8.30184e-28 4.17362e-27
11.2875 -1.29448e-27 6.50779e-27
10.808 -1.76658e-27 8.88121e-27
10.0551 -2.2379e-27 1.12507e-26
9.05249 -2.69939e-27 1.35708e-26
7.84478 -3.14178e-27 1.57948e-26
6.49564 -3.55585e-27 1.78765e-26
5.08381 -3.93275e-27 1.97712e-26
3.69743 -4.26419e-27 2.14375e-26
2.42732 -4.54279e-27 2.28381e-26
1.3596 -4.76221e-27 2.39412e-26
0.568423 -4.91743e-27 2.47216e-26
0.10952 -5.00489e-27 2.51613e-26
5.10639 4.92906e-27 -1.18998e-26
5.10788 4.92832e-27 -1.1898e-26
5.11562 4.9245e-27 -1.18888e-26
5.13801 4.91342e-27 -1.18621e-26
5.18653 4.88935e-27 -1.18039e-26
5.27503 4.84521e-27 -1.16974e-26
5.41855 4.77295e-27 -1.15229e-26
5.6319 4.66393e-27 -1.12597e-26
5.92788 4.50936e-27 -1.08866e-26
6.31524 4.30072e-27 -1.03829e-26
6.79667 4.03023e-27 -9.72984e-27
7.36682 3.69129e-27 -8.91156e-27
8.01093 3.27886e-27 -7.91588e-27
8.704 2.78984e-27 -6.73528e-27
9.41104 2.22334e-27 -5.36761e-27
10.0884 1.58088e-27 -3.81658e-27
10.6862 8.66558e-28 -2.09206e-27
11.1519 8.70369e-29 -2.10126e-28
11.4348 -7.48489e-28 1.80701e-27
11.4909 -1.62846e-27 3.93146e-27
11.2875 -2.53921e-27 6.1302e-27
10.808 -3.46528e-27 8.36592e-27
10.0551 -4.38981e-27 1.05979e-26
9.05249 -5.29505e-27 1.27834e-26
7.84478 -6.16281e-27 1.48784e-26
6.49564 -6.97505e-27 1.68393e-26
5.08381 -7.71436e-27 1.86241e-26
3.69743 -8.36452e-27 2.01937e-26
2.42732 -8.911e-27 2.1513e-26
1.3596 -9.3414e-27 2.25521e-26
0.568423 -9.64588e-27 2.32872e-26
0.10952 -9.81744e-27 2.37014e-26
5.10639 7.15588e-27 -1.07095e-26
5.10788 7.15481e-27 -1.07079e-26
5.11562 7.14926e-27 -1.06996e-26
5.13801 7.13318e-27 -1.06756e-26
5.18653 7.09823e-27 -1.06233e-26
5.27503 7.03415e-27 -1.05273e-26
5.41855 6.92925e-27 -1.03703e-26
5.6319 6.77098e-27 -1.01335e-26
5.92788 6.54658e-27 -9.79765e-27
6.31524 6.24368e-27 -9.34433e-27
6.79667 5.85099e-27 -8.75663e-27
7.36682 5.35892e-27 -8.0202e-27
8.01093 4.76017e-27 -7.1241e-27
8.704 4.05022e-27 -6.06159e-27
9.41104 3.22779e-27 -4.83072e-27
10.0884 2.29508e-27 -3.43484e-27
10.6862 1.25805e-27 -1.8828e-27
11.1519 1.26358e-28 -1.89108e-28
11.4348 -1.08664e-27 1.62627e-27
11.4909 -2.36416e-27 3.53822e-27
11.2875 -3.68637e-27 5.51704e-27
10.808 -5.0308e-27 7.52913e-27
10.0551 -6.37301e-27 9.53789e-27
9.05249 -7.68722e-27 1.15047e-26
7.84478 -8.94702e-27 1.33902e-26
6.49564 -1.01262e-26 1.51549e-26
5.08381 -1.11995e-26 1.67613e-26
3.69743 -1.21434e-26 1.81739e-26
2.42732 -1.29368e-26 1.93612e-26
1.3596 -1.35616e-26 2.02964e-26
0.568423 -1.40036e-26 2.09579e-26
0.10952 -1.42527e-26 2.13307e-26
5.10639 9.10771e-27 -9.10771e-27
5.10788 9.10635e-27 -9.10635e-27
5.11562 9.09928e-27 -9.09928e-27
5.13801 9.07882e-27 -9.07882e-27
5.18653 9.03434e-27 -9.03434e-27
5.27503 8.95277e-27 -8.95277e-27
5.41855 8.81926e-27 -8.81926e-27
5.6319 8.61782e-27 -8.61782e-27
5.92788 8.33221e-27 -8.33221e-27
6.31524 7.9467e-27 -7.9467e-27
6.79667 7.4469e-27 -7.4469e-27
7.36682 6.82062e-27 -6.82062e-27
8.01093 6.05855e-27 -6.05855e-27
8.704 5.15496e-27 -5.15496e-27
9.41104 4.10819e-27 -4.10819e-27
10.0884 2.92109e-27 -2.92109e-27
10.6862 1.60119e-27 -1.60119e-27
11.1519 1.60823e-28 -1.60823e-28
11.4348 -1.38303e-27 1.38303e-27
11.4909 -3.00901e-27 3.00901e-27
11.2875 -4.69185e-27 4.69185e-27
10.808 -6.40299e-27 6.40299e-27
10.0551 -8.11131e-27 8.11131e-27
9.05249 -9.78397e-27 9.78397e-27
7.84478 -1.13874e-26 1.13874e-26
6.49564 -1.28882e-26 1.28882e-26
5.08381 -1.42543e-26 1.42543e-26
3.69743 -1.54556e-26 1.54556e-26
2.42732 -1.64654e-26 1.64654e-26
1.3596 -1.72607e-26 1.72607e-26
0.568423 -1.78233e-26 1.78233e-26
0.10952 -1.81403e-26 1.81403e-26
5.10639 1.07095e-26 -7.15588e-27
5.10788 1.07079e-26 -7.15481e-27
5.11562 1.06996e-26 -7.14926e-27
5.13801 1.06756e-26 -7.13318e-27
5.18653 1.06233e-26 -7.09823e-27
5.27503 1.05273e-26 -7.03415e-27
5.41855 1.03703e-26 -6.92925e-27
5.6319 1.01335e-26 -6.77098e-27
5.92788 9.79765e-27 -6.54658e-27
6.31524 9.34433e-27 -6.24368e-27
6.79667 8.75663e-27 -5.85099e-27
7.36682 8.0202e-27 -5.35892e-27
8.01093 7.1241e-27 -4.76017e-27
8.704 6.06159e-27 -4.05022e-27
9.41104 4.83072e-27 -3.22779e-27
10.0884 3.43484e-27 -2.29508e-27
10.6862 1.8828e-27 -1.25805e-27
11.1519 1.89108e-28 -1.26358e-28
11.4348 -1.62627e-27 1.08664e-27
11.4909 -3.53822e-27 2.36416e-27
11.2875 -5.51704e-27 3.68637e-27
10.808 -7.52913e-27 5.0308e-27
10.0551 -9.53789e-27 6.37301e-27
9.05249 -1.15047e-26 7.68722e-27
7.84478 -1.33902e-26 8.94702e-27
6.49564 -1.51549e-26 1.01262e-26
5.08381 -1.67613e-26 1.11995e-26
3.69743 -1.81739e-26 1.21434e-26
2.42732 -1.93612e-26 1.29368e-26
1.3596 -2.02964e-26 1.35616e-26
0.568423 -2.09579e-26 1.40036e-26
0.10952 -2.13307e-26 1.42527e-26
5.10639 1.18998e-26 -4.92906e-27
5.10788 1.1898e-26 -4.92832e-27
5.11562 1.18888e-26 -4.9245e-27
5.13801 1.18621e-26 -4.91342e-27
5.18653 1.18039e-26 -4.88935e-27
5.27503 1.16974e-26 -4.84521e-27
5.41855 1.15229e-26 -4.77295e-27
5.6319 1.12597e-26 -4.66393e-27
5.92788 1.08866e-26 -4.50936e-27
6.31524 1.03829e-26 -4.30072e-27
6.79667 9.72984e-27 -4.03023e-27
7.36682 8.91156e-27 -3.69129e-27
8.01093 7.91588e-27 -3.27886e-27
8.704 6.73528e-27 -2.78984e-27
9.41104 5.36761e-27 -2.22334e-27
10.0884 3.81658e-27 -1.58088e-27
10.6862 2.09206e-27 -8.66558e-28
11.1519 2.10126e-28 -8.70369e-29
11.4348 -1.80701e-27 7.48489e-28
11.4909 -3.93146e-27 1.62846e-27
11.2875 -6.1302e-27 2.53921e-27
10.808 -8.36592e-27 3.46528e-27
10.0551 -1.05979e-26 4.38981e-27
9.05249 -1.27834e-26 5.29505e-27
7.84478 -1.48784e-26 6.16281e-27
6.49564 -1.68393e-26 6.97505e-27
5.08381 -1.86241e-26 7.71436e-27
3.69743 -2.01937e-26 8.36452e-27
2.42732 -2.1513e-26 8.911e-27
1.3596 -2.25521e-26 9.3414e-27
0.568423 -2.32872e-26 9.64588e-27
0.10952 -2.37014e-26 9.81744e-27
5.10639 1.26328e-26 -2.51281e-27
5.10788 1.26309e-26 -2.51244e-27
5.11562 1.26211e-26 -2.51049e-27
5.13801 1.25927e-26 -2.50484e-27
5.18653 1.2531e-26 -2.49257e-27
5.27503 1.24179e-26 -2.47006e-27
5.41855 1.22327e-26 -2.43323e-27
5.6319 1.19533e-26 -2.37765e-27
5.92788 1.15571e-26 -2.29885e-27
6.31524 1.10224e-26 -2.19249e-27
6.79667 1.03291e-26 -2.05459e-27
7.36682 9.46047e-27 -1.8818e-27
8.01093 8.40345e-27 -1.67155e-27
8.704 7.15013e-27 -1.42225e-27
9.41104 5.69823e-27 -1.13345e-27
10.0884 4.05166e-27 -8.05926e-28
10.6862 2.22091e-27 -4.41767e-28
11.1519 2.23068e-28 -4.43711e-29
11.4348 -1.91832e-27 3.81577e-28
11.4909 -4.17362e-27 8.30184e-28
11.2875 -6.50779e-27 1.29448e-27
10.808 -8.88121e-27 1.76658e-27
10.0551 -1.12507e-26 2.2379e-27
9.05249 -1.35708e-26 2.69939e-27
7.84478 -1.57948e-26 3.14178e-27
6.49564 -1.78765e-26 3.55585e-27
5.08381 -1.97712e-26 3.93275e-27
3.69743 -2.14375e-26 4.26419e-27
2.42732 -2.28381e-26 4.54279e-27
1.3596 -2.39412e-26 4.76221e-27
0.568423 -2.47216e-26 4.91743e-27
0.10952 -2.51613e-26 5.00489e-27
5.10639 1.28803e-26 -1.57725e-42
5.10788 1.28783e-26 -1.57649e-42
5.11562 1.28683e-26 -1.57433e-42
5.13801 1.28394e-26 -1.56945e-42
5.18653 1.27765e-26 -1.56002e-42
5.27503 1.26611e-26 -1.5438e-42
5.41855 1.24723e-26 -1.51827e-42
5.6319 1.21874e-26 -1.4807e-42
5.92788 1.17835e-26 -1.42833e-42
6.31524 1.12383e-26 -1.35854e-42
6.79667 1.05315e-26 -1.2689e-42
7.36682 9.64581e-27 -1.15741e-42
8.01093 8.56808e-27 -1.02258e-42
8.704 7.29021e-27 -8.63517e-43
9.41104 5.80986e-27 -6.80052e-43
10.0884 4.13104e-27 -4.72781e-43
10.6862 2.26442e-27 -2.43102e-43
11.1519 2.27439e-28 6.78043e-45
11.4348 -1.9559e-27 2.7388e-43
11.4909 -4.25538e-27 5.54486e-43
11.2875 -6.63528e-27 8.44242e-43
10.808 -9.0552e-27 1.13825e-42
10.0551 -1.14711e-26 1.43123e-42
9.05249 -1.38366e-26 1.71759e-42
7.84478 -1.61042e-26 1.99167e-42
6.49564 -1.82267e-26 2.24787e-42
5.08381 -2.01586e-26 2.48078e-42
3.69743 -2.18575e-26 2.68539e-42
2.42732 -2.32856e-26 2.85723e-42
1.3596 -2.44103e-26 2.99248e-42
0.568423 -2.52059e-26 3.08811e-42
0.10952 -2.56542e-26 3.14198e-42
5.10639 1.26328e-26 2.51281e-27
5.10788 1.26309e-26 2.51244e-27
5.11562 1.26211e-26 2.51049e-27
5.13801 1.25927e-26 2.50484e-27
5.18653 1.2531e-26 2.49257e-27
5.27503 1.24179e-26 2.47006e-27
5.41855 1.22327e-26 2.43323e-27
5.6319 1.19533e-26 2.37765e-27
5.92788 1.15571e-26 2.29885e-27
6.31524 1.10224e-26 2.19249e-27
6.79667 1.03291e-26 2.05459e-27
7.36682 9.46047e-27 1.8818e-27
8.01093 8.40345e-27 1.67155e-27
8.704 7.15013e-27 1.42225e-27
9.41104 5.69823e-27 1.13345e-27
10.0884 4.05166e-27 8.05926e-28
10.6862 2.22091e-27 4.41767e-28
11.1519 2.23068e-28 4.43711e-29
11.4348 -1.91832e-27 -3.81577e-28
11.4909 -4.17362e-27 -8.30184e-28
11.2875 -6.50779e-27 -1.29448e-27
10.808 -8.88121e-27 -1.76658e-27
10.0551 -1.12507e-26 -2.2379e-27
9.05249 -1.35708e-26 -2.69939e-27
7.84478 -1.57948e-26 -3.14178e-27
6.49564 -1.78765e-26 -3.55585e-27
5.08381 -1.97712e-26 -3.93275e-27
3.69743 -2.14375e-26 -4.26419e-27
2.42732 -2.28381e-26 -4.54279e-27
1.3596 -2.39412e-26 -4.76221e-27
0.568423 -2.47216e-26 -4.91743e-27
0.10952 -2.51613e-26 -5.00489e-27
5.10639 1.18998e-26 4.92906e-27
5.10788 1.1898e-26 4.92832e-27
5.11562 1.18888e-26 4.9245e-27
5.13801 1.18621e-26 4.91342e-27
5.18653 1.18039e-26 4.88935e-27
5.27503 1.16974e-26 4.84521e-27
5.41855 1.15229e-26 4.77295e-27
5.6319 1.12597e-26 4.66393e-27
5.92788 1.08866e-26 4.50936e-27
6.31524 1.03829e-26 4.30072e-27
6.79667 9.72984e-27 4.03023e-27
7.36682 8.91156e-27 3.69129e-27
8.01093 7.91588e-27 3.27886e-27
8.704 6.73528e-27 2.78984e-27
9.41104 5.36761e-27 2.22334e-27