# vtk DataFile Version 3.0
LifeV output
ASCII
DATASET UNSTRUCTURED_GRID
POINTS 25600 float
0 0.000684035 0
0 0.00359712 0
0 0.00880944 0
0 0.0162735 0
0 0.0259197 0
0 0.0376581 0
0 0.0513791 0
0 0.0669545 0
0 0.0842389 0
0 0.103071 0
0 0.123275 0
0 0.144662 0
0 0.167033 0
0 0.190178 0
0 0.213882 0
0 0.237923 0
0 0.262077 0
0 0.286118 0
0 0.309822 0
0 0.332967 0
0 0.355338 0
0 0.376725 0
0 0.396929 0
0 0.415761 0
0 0.433046 0
0 0.448621 0
0 0.462342 0
0 0.47408 0
0 0.483727 0
0 0.491191 0
0 0.496403 0
0 0.499316 0
0 0.000670891 0.000133449
0 0.003528 0.000701764
0 0.00864017 0.00171864
0 0.0159608 0.0031748
0 0.0254217 0.00505668
0 0.0369345 0.00734673
0 0.0503918 0.0100236
0 0.065668 0.0130622
0 0.0826203 0.0164342
0 0.101091 0.0201082
0 0.120906 0.0240498
0 0.141883 0.0282222
0 0.163823 0.0325865
0 0.186524 0.0371019
0 0.209772 0.0417263
0 0.233351 0.0464165
0 0.257041 0.0511287
0 0.28062 0.0558189
0 0.303869 0.0604432
0 0.326569 0.0649587
0 0.34851 0.069323
0 0.369486 0.0734954
0 0.389302 0.077437
0 0.407772 0.081111
0 0.424725 0.084483
0 0.440001 0.0875216
0 0.453458 0.0901984
0 0.464971 0.0924885
0 0.474432 0.0943704
0 0.481752 0.0958265
0 0.486865 0.0968434
0 0.489722 0.0974117
0 0.000631966 0.000261769
0 0.00332331 0.00137656
0 0.00813886 0.00337123
0 0.0150347 0.00622759
0 0.0239467 0.00991904
0 0.0347915 0.0144111
0 0.0474681 0.0196619
0 0.0618579 0.0256224
0 0.0778266 0.0322368
0 0.0952252 0.0394436
0 0.113891 0.0471753
0 0.13365 0.0553598
0 0.154318 0.0639207
0 0.175702 0.072778
0 0.197601 0.0818491
0 0.219812 0.0910492
0 0.242127 0.100292
0 0.264339 0.109493
0 0.286238 0.118564
0 0.307622 0.127421
0 0.328289 0.135982
0 0.348048 0.144166
0 0.366715 0.151898
0 0.384113 0.159105
0 0.400082 0.165719
0 0.414472 0.17168
0 0.427148 0.176931
0 0.437993 0.181423
0 0.446905 0.185114
0 0.453801 0.18797
0 0.458616 0.189965
0 0.461308 0.19108
0 0.000568754 0.000380029
0 0.0029909 0.00199845
0 0.00732478 0.00489426
0 0.0135309 0.00904106
0 0.0215515 0.0144002
0 0.0313116 0.0209217
0 0.0427201 0.0285447
0 0.0556706 0.0371979
0 0.0700421 0.0468006
0 0.0857005 0.0572632
0 0.102499 0.0684879
0 0.120282 0.08037
0 0.138883 0.0927985
0 0.158127 0.105657
0 0.177836 0.118826
0 0.197826 0.132183
0 0.217909 0.145602
0 0.237898 0.158959
0 0.257607 0.172128
0 0.276852 0.184987
0 0.295453 0.197415
0 0.313235 0.209297
0 0.330034 0.220522
0 0.345693 0.230984
0 0.360064 0.240587
0 0.373015 0.24924
0 0.384423 0.256863
0 0.394183 0.263385
0 0.402204 0.268744
0 0.40841 0.272891
0 0.412744 0.275787
0 0.415166 0.277405
0 0.000483685 0.000483685
0 0.00254355 0.00254355
0 0.00622921 0.00622921
0 0.0115071 0.0115071
0 0.018328 0.018328
0 0.0266283 0.0266283
0 0.0363305 0.0363305
0 0.047344 0.047344
0 0.0595659 0.0595659
0 0.0728822 0.0728822
0 0.0871686 0.0871686
0 0.102292 0.102292
0 0.11811 0.11811
0 0.134476 0.134476
0 0.151237 0.151237
0 0.168237 0.168237
0 0.185316 0.185316
0 0.202316 0.202316
0 0.219077 0.219077
0 0.235443 0.235443
0 0.251262 0.251262
0 0.266385 0.266385
0 0.280671 0.280671
0 0.293987 0.293987
0 0.306209 0.306209
0 0.317223 0.317223
0 0.326925 0.326925
0 0.335225 0.335225
0 0.342046 0.342046
0 0.347324 0.347324
0 0.35101 0.35101
0 0.35307 0.35307
0 0.000380029 0.000568754
0 0.00199845 0.0029909
0 0.00489426 0.00732478
0 0.00904106 0.0135309
0 0.0144002 0.0215515
0 0.0209217 0.0313116
0 0.0285447 0.0427201
0 0.0371979 0.0556706
0 0.0468006 0.0700421
0 0.0572632 0.0857005
0 0.0684879 0.102499
0 0.08037 0.120282
0 0.0927985 0.138883
0 0.105657 0.158127
0 0.118826 0.177836
0 0.132183 0.197826
0 0.145602 0.217909
0 0.158959 0.237898
0 0.172128 0.257607
0 0.184987 0.276852
0 0.197415 0.295453
0 0.209297 0.313235
0 0.220522 0.330034
0 0.230984 0.345693
0 0.240587 0.360064
0 0.24924 0.373015
0 0.256863 0.384423
0 0.263385 0.394183
0 0.268744 0.402204
0 0.272891 0.40841
0 0.275787 0.412744
0 0.277405 0.415166
0 0.000261769 0.000631966
0 0.00137656 0.00332331
0 0.00337123 0.00813886
0 0.00622759 0.0150347
0 0.00991904 0.0239467
0 0.0144111 0.0347915
0 0.0196619 0.0474681
0 0.0256224 0.0618579
0 0.0322368 0.0778266
0 0.0394436 0.0952252
0 0.0471753 0.113891
0 0.0553598 0.13365
0 0.0639207 0.154318
0 0.072778 0.175702
0 0.0818491 0.197601
0 0.0910492 0.219812
0 0.100292 0.242127
0 0.109493 0.264339
0 0.118564 0.286238
0 0.127421 0.307622
0 0.135982 0.328289
0 0.144166 0.348048
0 0.151898 0.366715
0 0.159105 0.384113
0 0.165719 0.400082
0 0.17168 0.414472
0 0.176931 0.427148
0 0.181423 0.437993
0 0.185114 0.446905
0 0.18797 0.453801
0 0.189965 0.458616
0 0.19108 0.461308
0 0.000133449 0.000670891
0 0.000701764 0.003528
0 0.00171864 0.00864017
0 0.0031748 0.0159608
0 0.00505668 0.0254217
0 0.00734673 0.0369345
0 0.0100236 0.0503918
0 0.0130622 0.065668
0 0.0164342 0.0826203
0 0.0201082 0.101091
0 0.0240498 0.120906
0 0.0282222 0.141883
0 0.0325865 0.163823
0 0.0371019 0.186524
0 0.0417263 0.209772
0 0.0464165 0.233351
0 0.0511287 0.257041
0 0.0558189 0.28062
0 0.0604432 0.303869
0 0.0649587 0.326569
0 0.069323 0.34851
0 0.0734954 0.369486
0 0.077437 0.389302
0 0.081111 0.407772
0 0.084483 0.424725
0 0.0875216 0.440001
0 0.0901984 0.453458
0 0.0924885 0.464971
0 0.0943704 0.474432
0 0.0958265 0.481752
0 0.0968434 0.486865
0 0.0974117 0.489722
0 4.1885e-20 0.000684035
0 2.2026e-19 0.00359712
0 5.39422e-19 0.00880944
0 9.96463e-19 0.0162735
0 1.58712e-18 0.0259197
0 2.30589e-18 0.0376581
0 3.14606e-18 0.0513791
0 4.09978e-18 0.0669545
0 5.15815e-18 0.0842389
0 6.31128e-18 0.103071
0 7.54842e-18 0.123275
0 8.858e-18 0.144662
0 1.02278e-17 0.167033
0 1.16451e-17 0.190178
0 1.30965e-17 0.213882
0 1.45686e-17 0.237923
0 1.60476e-17 0.262077
0 1.75197e-17 0.286118
0 1.89711e-17 0.309822
0 2.03884e-17 0.332967
0 2.17582e-17 0.355338
0 2.30678e-17 0.376725
0 2.43049e-17 0.396929
0 2.5458e-17 0.415761
0 2.65164e-17 0.433046
0 2.74701e-17 0.448621
0 2.83103e-17 0.462342
0 2.9029e-17 0.47408
0 2.96197e-17 0.483727
0 3.00767e-17 0.491191
0 3.03959e-17 0.496403
0 3.05743e-17 0.499316
0 -0.000133449 0.000670891
0 -0.000701764 0.003528
0 -0.00171864 0.00864017
0 -0.0031748 0.0159608
0 -0.00505668 0.0254217
0 -0.00734673 0.0369345
0 -0.0100236 0.0503918
0 -0.0130622 0.065668
0 -0.0164342 0.0826203
0 -0.0201082 0.101091
0 -0.0240498 0.120906
0 -0.0282222 0.141883
0 -0.0325865 0.163823
0 -0.0371019 0.186524
0 -0.0417263 0.209772
0 -0.0464165 0.233351
0 -0.0511287 0.257041
0 -0.0558189 0.28062
0 -0.0604432 0.303869
0 -0.0649587 0.326569
0 -0.069323 0.34851
0 -0.0734954 0.369486
0 -0.077437 0.389302
0 -0.081111 0.407772
0 -0.084483 0.424725
0 -0.0875216 0.440001
0 -0.0901984 0.453458
0 -0.0924885 0.464971
0 -0.0943704 0.474432
0 -0.0958265 0.481752
0 -0.0968434 0.486865
0 -0.0974117 0.489722
0 -0.000261769 0.000631966
0 -0.00137656 0.00332331
0 -0.00337123 0.00813886
0 -0.00622759 0.0150347
0 -0.00991904 0.0239467
0 -0.0144111 0.0347915
0 -0.0196619 0.0474681
0 -0.0256224 0.0618579
0 -0.0322368 0.0778266
0 -0.0394436 0.0952252
0 -0.0471753 0.113891
0 -0.0553598 0.13365
0 -0.0639207 0.154318
0 -0.072778 0.175702
0 -0.0818491 0.197601
0 -0.0910492 0.219812
0 -0.100292 0.242127
0 -0.109493 0.264339
0 -0.118564 0.286238
0 -0.127421 0.307622
0 -0.135982 0.328289
0 -0.144166 0.348048
0 -0.151898 0.366715
0 -0.159105 0.384113
0 -0.165719 0.400082
0 -0.17168 0.414472
0 -0.176931 0.427148
0 -0.181423 0.437993
0 -0.185114 0.446905
0 -0.18797 0.453801
0 -0.189965 0.458616
0 -0.19108 0.461308
0 -0.000380029 0.000568754
0 -0.00199845 0.0029909
0 -0.00489426 0.00732478
0 -0.00904106 0.0135309
0 -0.0144002 0.0215515
0 -0.0209217 0.0313116
0 -0.0285447 0.0427201
0 -0.0371979 0.0556706
0 -0.0468006 0.0700421
0 -0.0572632 0.0857005
0 -0.0684879 0.102499
0 -0.08037 0.120282
0 -0.0927985 0.138883
0 -0.105657 0.158127
0 -0.118826 0.177836
0 -0.132183 0.197826
0 -0.145602 0.217909
0 -0.158959 0.237898
0 -0.172128 0.257607
0 -0.184987 0.276852
0 -0.197415 0.295453
0 -0.209297 0.313235
0 -0.220522 0.330034
0 -0.230984 0.345693
0 -0.240587 0.360064
0 -0.24924 0.373015
0 -0.256863 0.384423
0 -0.263385 0.394183
0 -0.268744 0.402204
0 -0.272891 0.40841
0 -0.275787 0.412744
0 -0.277405 0.415166
0 -0.000483685 0.000483685
0 -0.00254355 0.00254355
0 -0.00622921 0.00622921
0 -0.0115071 0.0115071
0 -0.018328 0.018328
0 -0.0266283 0.0266283
0 -0.0363305 0.0363305
0 -0.047344 0.047344
0 -0.0595659 0.0595659
0 -0.0728822 0.0728822
0 -0.0871686 0.0871686
0 -0.102292 0.102292
0 -0.11811 0.11811
0 -0.134476 0.134476
0 -0.151237 0.151237
0 -0.168237 0.168237
0 -0.185316 0.185316
0 -0.202316 0.202316
0 -0.219077 0.219077
0 -0.235443 0.235443
0 -0.251262 0.251262
0 -0.266385 0.266385
0 -0.280671 0.280671
0 -0.293987 0.293987
0 -0.306209 0.306209
0 -0.317223 0.317223
0 -0.326925 0.326925
0 -0.335225 0.335225
0 -0.342046 0.342046
0 -0.347324 0.347324
0 -0.35101 0.35101
0 -0.35307 0.35307
0 -0.000568754 0.000380029
0 -0.0029909 0.00199845
0 -0.00732478 0.00489426
0 -0.0135309 0.00904106
0 -0.0215515 0.0144002
0 -0.0313116 0.0209217
0 -0.0427201 0.0285447
0 -0.0556706 0.0371979
0 -0.0700421 0.0468006
0 -0.0857005 0.0572632
0 -0.102499 0.0684879
0 -0.120282 0.08037
0 -0.138883 0.0927985
0 -0.158127 0.105657
0 -0.177836 0.118826
0 -0.197826 0.132183
0 -0.217909 0.145602
0 -0.237898 0.158959
0 -0.257607 0.172128
0 -0.276852 0.184987
0 -0.295453 0.197415
0 -0.313235 0.209297
0 -0.330034 0.220522
0 -0.345693 0.230984
0 -0.360064 0.240587
0 -0.373015 0.24924
0 -0.384423 0.256863
0 -0.394183 0.263385
0 -0.402204 0.268744
0 -0.40841 0.272891
0 -0.412744 0.275787
0 -0.415166 0.277405
0 -0.000631966 0.000261769
0 -0.00332331 0.00137656
0 -0.00813886 0.00337123
0 -0.0150347 0.00622759
0 -0.0239467 0.00991904
0 -0.0347915 0.0144111
0 -0.0474681 0.0196619
0 -0.0618579 0.0256224
0 -0.0778266 0.0322368
0 -0.0952252 0.0394436
0 -0.113891 0.0471753
0 -0.13365 0.0553598
0 -0.154318 0.0639207
0 -0.175702 0.072778
0 -0.197601 0.0818491
0 -0.219812 0.0910492
0 -0.242127 0.100292
0 -0.264339 0.109493
0 -0.286238 0.118564
0 -0.307622 0.127421
0 -0.328289 0.135982
0 -0.348048 0.144166
0 -0.366715 0.151898
[...]
POINT_DATA 25600
FIELD FieldData 1
Velocity 3 25600 double
5.06839 -3.20964e-27 -2.34239e-47
5.06989 -3.20916e-27 -1.23173e-46
5.07767 -3.20666e-27 -3.01575e-46
5.10018 -3.19944e-27 -5.56676e-46
5.14899 -3.18375e-27 -8.85205e-46
5.23799 -3.15496e-27 -1.28224e-45
5.38233 -3.10785e-27 -1.74084e-45
5.59692 -3.03676e-27 -2.25166e-45
5.89462 -2.93597e-27 -2.80278e-45
6.28427 -2.79993e-27 -3.37956e-45
6.76858 -2.62355e-27 -3.9648e-45
7.34222 -2.40254e-27 -4.53911e-45
7.99037 -2.13362e-27 -5.08151e-45
8.68797 -1.81475e-27 -5.57027e-45
9.39991 -1.44536e-27 -5.98395e-45
10.0823 -1.02644e-27 -6.30259e-45
10.6852 -5.60662e-28 -6.50889e-45
11.1557 -5.23715e-29 -6.58946e-45
11.4429 4.92438e-28 -6.53589e-45
11.5026 1.06623e-27 -6.34561e-45
11.3019 1.66009e-27 -6.0225e-45
10.8243 2.26393e-27 -5.57706e-45
10.0721 2.86678e-27 -5.02632e-45
9.06919 3.45705e-27 -4.3932e-45
7.86025 4.02288e-27 -3.7056e-45
6.50914 4.5525e-27 -2.99503e-45
5.09481 5.03457e-27 -2.29506e-45
3.70568 5.45851e-27 -1.63953e-45
2.43287 5.81485e-27 -1.06071e-45
1.36276 6.0955e-27 -5.87486e-46
0.56976 6.29403e-27 -2.43706e-46
0.109779 6.4059e-27 -4.67518e-47
5.06839 -3.14797e-27 -6.26169e-28
5.06989 -3.14749e-27 -6.26076e-28
5.07767 -3.14505e-27 -6.25589e-28
5.10018 -3.13797e-27 -6.2418e-28
5.14899 -3.12257e-27 -6.21118e-28
5.23799 -3.09434e-27 -6.15503e-28
5.38233 -3.04813e-27 -6.06311e-28
5.59692 -2.97841e-27 -5.92443e-28
5.89462 -2.87956e-27 -5.7278e-28
6.28427 -2.74613e-27 -5.46239e-28
6.76858 -2.57314e-27 -5.1183e-28
7.34222 -2.35638e-27 -4.68713e-28
7.99037 -2.09262e-27 -4.16248e-28
8.68797 -1.77988e-27 -3.5404e-28
9.39991 -1.41759e-27 -2.81975e-28
10.0823 -1.00672e-27 -2.00249e-28
10.6852 -5.49889e-28 -1.0938e-28
11.1557 -5.13652e-29 -1.02172e-29
11.4429 4.82976e-28 9.60699e-29
11.5026 1.04574e-27 2.08011e-28
11.3019 1.62819e-27 3.23867e-28
10.8243 2.22043e-27 4.41672e-28
10.0721 2.8117e-27 5.59281e-28
9.06919 3.39062e-27 6.74436e-28
7.86025 3.94558e-27 7.84825e-28
6.50914 4.46503e-27 8.88149e-28
5.09481 4.93783e-27 9.82196e-28
3.70568 5.35363e-27 1.0649e-27
2.43287 5.70311e-27 1.13442e-27
1.36276 5.97837e-27 1.18917e-27
0.56976 6.17309e-27 1.2279e-27
0.109779 6.28281e-27 1.24973e-27
5.06839 -2.96532e-27 -1.22828e-27
5.06989 -2.96487e-27 -1.22809e-27
5.07767 -2.96257e-27 -1.22714e-27
5.10018 -2.9559e-27 -1.22437e-27
5.14899 -2.9414e-27 -1.21837e-27
5.23799 -2.91481e-27 -1.20735e-27
5.38233 -2.87127e-27 -1.18932e-27
5.59692 -2.8056e-27 -1.16212e-27
5.89462 -2.71248e-27 -1.12355e-27
6.28427 -2.5868e-27 -1.07149e-27
6.76858 -2.42385e-27 -1.00399e-27
7.34222 -2.21966e-27 -9.19414e-28
7.99037 -1.97121e-27 -8.16501e-28
8.68797 -1.67661e-27 -6.94475e-28
9.39991 -1.33534e-27 -5.53115e-28
10.0823 -9.48308e-28 -3.92802e-28
10.6852 -5.17984e-28 -2.14556e-28
11.1557 -4.83849e-29 -2.00417e-29
11.4429 4.54953e-28 1.88448e-28
11.5026 9.85069e-28 4.08029e-28
11.3019 1.53372e-27 6.35289e-28
10.8243 2.0916e-27 8.6637e-28
10.0721 2.64856e-27 1.09707e-27
9.06919 3.19389e-27 1.32295e-27
7.86025 3.71666e-27 1.53949e-27
6.50914 4.20596e-27 1.74217e-27
5.09481 4.65134e-27 1.92665e-27
3.70568 5.04301e-27 2.08888e-27
2.43287 5.37222e-27 2.22524e-27
1.36276 5.6315e-27 2.33265e-27
0.56976 5.81492e-27 2.40862e-27
0.109779 5.91828e-27 2.45143e-27
5.06839 -2.66872e-27 -1.78318e-27
5.06989 -2.66832e-27 -1.78291e-27
5.07767 -2.66624e-27 -1.78153e-27
5.10018 -2.66024e-27 -1.77752e-27
5.14899 -2.64719e-27 -1.76879e-27
5.23799 -2.62326e-27 -1.7528e-27
5.38233 -2.58408e-27 -1.72663e-27
5.59692 -2.52497e-27 -1.68713e-27
5.89462 -2.44117e-27 -1.63114e-27
6.28427 -2.32805e-27 -1.55556e-27
6.76858 -2.18141e-27 -1.45757e-27
7.34222 -1.99764e-27 -1.33478e-27
7.99037 -1.77404e-27 -1.18538e-27
8.68797 -1.50891e-27 -1.00822e-27
9.39991 -1.20177e-27 -8.02998e-28
10.0823 -8.53454e-28 -5.7026e-28
10.6852 -4.66174e-28 -3.11487e-28
11.1557 -4.35453e-29 -2.9096e-29
11.4429 4.09447e-28 2.73584e-28
11.5026 8.86538e-28 5.92366e-28
11.3019 1.38031e-27 9.22296e-28
10.8243 1.88239e-27 1.25777e-27
10.0721 2.38364e-27 1.5927e-27
9.06919 2.87443e-27 1.92063e-27
7.86025 3.3449e-27 2.23499e-27
6.50914 3.78527e-27 2.52923e-27
5.09481 4.18609e-27 2.79706e-27
3.70568 4.53859e-27 3.03259e-27
2.43287 4.83487e-27 3.23055e-27
1.36276 5.06822e-27 3.38648e-27
0.56976 5.23329e-27 3.49677e-27
0.109779 5.32631e-27 3.55893e-27
5.06839 -2.26956e-27 -2.26956e-27
5.06989 -2.26922e-27 -2.26922e-27
5.07767 -2.26745e-27 -2.26745e-27
5.10018 -2.26235e-27 -2.26235e-27
5.14899 -2.25125e-27 -2.25125e-27
5.23799 -2.2309e-27 -2.2309e-27
5.38233 -2.19758e-27 -2.19758e-27
5.59692 -2.14731e-27 -2.14731e-27
5.89462 -2.07605e-27 -2.07605e-27
6.28427 -1.97985e-27 -1.97985e-27
6.76858 -1.85513e-27 -1.85513e-27
7.34222 -1.69886e-27 -1.69886e-27
7.99037 -1.5087e-27 -1.5087e-27
8.68797 -1.28322e-27 -1.28322e-27
9.39991 -1.02202e-27 -1.02202e-27
10.0823 -7.25803e-28 -7.25803e-28
10.6852 -3.96448e-28 -3.96448e-28
11.1557 -3.70322e-29 -3.70322e-29
11.4429 3.48206e-28 3.48206e-28
11.5026 7.53939e-28 7.53939e-28
11.3019 1.17386e-27 1.17386e-27
10.8243 1.60084e-27 1.60084e-27
10.0721 2.02712e-27 2.02712e-27
9.06919 2.4445e-27 2.4445e-27
7.86025 2.8446e-27 2.8446e-27
6.50914 3.21911e-27 3.21911e-27
5.09481 3.55998e-27 3.55998e-27
3.70568 3.85975e-27 3.85975e-27
2.43287 4.11172e-27 4.11172e-27
1.36276 4.31017e-27 4.31017e-27
0.56976 4.45055e-27 4.45055e-27
0.109779 4.52965e-27 4.52965e-27
5.06839 -1.78318e-27 -2.66872e-27
5.06989 -1.78291e-27 -2.66832e-27
5.07767 -1.78153e-27 -2.66624e-27
5.10018 -1.77752e-27 -2.66024e-27
5.14899 -1.76879e-27 -2.64719e-27
5.23799 -1.7528e-27 -2.62326e-27
5.38233 -1.72663e-27 -2.58408e-27
5.59692 -1.68713e-27 -2.52497e-27
5.89462 -1.63114e-27 -2.44117e-27
6.28427 -1.55556e-27 -2.32805e-27
6.76858 -1.45757e-27 -2.18141e-27
7.34222 -1.33478e-27 -1.99764e-27
7.99037 -1.18538e-27 -1.77404e-27
8.68797 -1.00822e-27 -1.50891e-27
9.39991 -8.02998e-28 -1.20177e-27
10.0823 -5.7026e-28 -8.53454e-28
10.6852 -3.11487e-28 -4.66174e-28
11.1557 -2.9096e-29 -4.35453e-29
11.4429 2.73584e-28 4.09447e-28
11.5026 5.92366e-28 8.86538e-28
11.3019 9.22296e-28 1.38031e-27
10.8243 1.25777e-27 1.88239e-27
10.0721 1.5927e-27 2.38364e-27
9.06919 1.92063e-27 2.87443e-27
7.86025 2.23499e-27 3.3449e-27
6.50914 2.52923e-27 3.78527e-27
5.09481 2.79706e-27 4.18609e-27
3.70568 3.03259e-27 4.53859e-27
2.43287 3.23055e-27 4.83487e-27
1.36276 3.38648e-27 5.06822e-27
0.56976 3.49677e-27 5.23329e-27
0.109779 3.55893e-27 5.32631e-27
5.06839 -1.22828e-27 -2.96532e-27
5.06989 -1.22809e-27 -2.96487e-27
5.07767 -1.22714e-27 -2.96257e-27
5.10018 -1.22437e-27 -2.9559e-27
5.14899 -1.21837e-27 -2.9414e-27
5.23799 -1.20735e-27 -2.91481e-27
5.38233 -1.18932e-27 -2.87127e-27
5.59692 -1.16212e-27 -2.8056e-27
5.89462 -1.12355e-27 -2.71248e-27
6.28427 -1.07149e-27 -2.5868e-27
6.76858 -1.00399e-27 -2.42385e-27
7.34222 -9.19414e-28 -2.21966e-27
7.99037 -8.16501e-28 -1.97121e-27
8.68797 -6.94475e-28 -1.67661e-27
9.39991 -5.53115e-28 -1.33534e-27
10.0823 -3.92802e-28 -9.48308e-28
10.6852 -2.14556e-28 -5.17984e-28
11.1557 -2.00417e-29 -4.83849e-29
11.4429 1.88448e-28 4.54953e-28
11.5026 4.08029e-28 9.85069e-28
11.3019 6.35289e-28 1.53372e-27
10.8243 8.6637e-28 2.0916e-27
10.0721 1.09707e-27 2.64856e-27
9.06919 1.32295e-27 3.19389e-27
7.86025 1.53949e-27 3.71666e-27
6.50914 1.74217e-27 4.20596e-27
5.09481 1.92665e-27 4.65134e-27
3.70568 2.08888e-27 5.04301e-27
2.43287 2.22524e-27 5.37222e-27
1.36276 2.33265e-27 5.6315e-27
0.56976 2.40862e-27 5.81492e-27
0.109779 2.45143e-27 5.91828e-27
5.06839 -6.26169e-28 -3.14797e-27
5.06989 -6.26076e-28 -3.14749e-27
5.07767 -6.25589e-28 -3.14505e-27
5.10018 -6.2418e-28 -3.13797e-27
5.14899 -6.21118e-28 -3.12257e-27
5.23799 -6.15503e-28 -3.09434e-27
5.38233 -6.06311e-28 -3.04813e-27
5.59692 -5.92443e-28 -2.97841e-27
5.89462 -5.7278e-28 -2.87956e-27
6.28427 -5.46239e-28 -2.74613e-27
6.76858 -5.1183e-28 -2.57314e-27
7.34222 -4.68713e-28 -2.35638e-27
7.99037 -4.16248e-28 -2.09262e-27
8.68797 -3.5404e-28 -1.77988e-27
9.39991 -2.81975e-28 -1.41759e-27
10.0823 -2.00249e-28 -1.00672e-27
10.6852 -1.0938e-28 -5.49889e-28
11.1557 -1.02172e-29 -5.13652e-29
11.4429 9.60699e-29 4.82976e-28
11.5026 2.08011e-28 1.04574e-27
11.3019 3.23867e-28 1.62819e-27
10.8243 4.41672e-28 2.22043e-27
10.0721 5.59281e-28 2.8117e-27
9.06919 6.74436e-28 3.39062e-27
7.86025 7.84825e-28 3.94558e-27
6.50914 8.88149e-28 4.46503e-27
5.09481 9.82196e-28 4.93783e-27
3.70568 1.0649e-27 5.35363e-27
2.43287 1.13442e-27 5.70311e-27
1.36276 1.18917e-27 5.97837e-27
0.56976 1.2279e-27 6.17309e-27
0.109779 1.24973e-27 6.28281e-27
5.06839 -1.96199e-43 -3.20964e-27
5.06989 -1.94746e-43 -3.20916e-27
5.07767 -1.92048e-43 -3.20666e-27
5.10018 -1.87965e-43 -3.19944e-27
5.14899 -1.82315e-43 -3.18375e-27
5.23799 -1.74886e-43 -3.15496e-27
5.38233 -1.65456e-43 -3.10785e-27
5.59692 -1.53813e-43 -3.03676e-27
5.89462 -1.39776e-43 -2.93597e-27
6.28427 -1.23215e-43 -2.79993e-27
6.76858 -1.04062e-43 -2.62355e-27
7.34222 -8.23333e-44 -2.40254e-27
7.99037 -5.81255e-44 -2.13362e-27
8.68797 -3.16251e-44 -1.81475e-27
9.39991 -3.10238e-45 -1.44536e-27
10.0823 2.70963e-44 -1.02644e-27
10.6852 5.85612e-44 -5.60662e-28
11.1557 9.08349e-44 -5.23715e-29
11.4429 1.2343e-43 4.92438e-28
11.5026 1.5585e-43 1.06623e-27
11.3019 1.87602e-43 1.66009e-27
10.8243 2.18219e-43 2.26393e-27
10.0721 2.47273e-43 2.86678e-27
9.06919 2.74381e-43 3.45705e-27
7.86025 2.99215e-43 4.02288e-27
6.50914 3.21504e-43 4.5525e-27
5.09481 3.41033e-43 5.03457e-27
3.70568 3.57636e-43 5.45851e-27
2.43287 3.71195e-43 5.81485e-27
1.36276 3.81626e-43 6.0955e-27
0.56976 3.88876e-43 6.29403e-27
0.109779 3.92915e-43 6.4059e-27
5.06839 6.26169e-28 -3.14797e-27
5.06989 6.26076e-28 -3.14749e-27
5.07767 6.25589e-28 -3.14505e-27
5.10018 6.2418e-28 -3.13797e-27
5.14899 6.21118e-28 -3.12257e-27
5.23799 6.15503e-28 -3.09434e-27
5.38233 6.06311e-28 -3.04813e-27
5.59692 5.92443e-28 -2.97841e-27
5.89462 5.7278e-28 -2.87956e-27
6.28427 5.46239e-28 -2.74613e-27
6.76858 5.1183e-28 -2.57314e-27
7.34222 4.68713e-28 -2.35638e-27
7.99037 4.16248e-28 -2.09262e-27
8.68797 3.5404e-28 -1.77988e-27
9.39991 2.81975e-28 -1.41759e-27
10.0823 2.00249e-28 -1.00672e-27
10.6852 1.0938e-28 -5.49889e-28
11.1557 1.02172e-29 -5.13652e-29
11.4429 -9.60699e-29 4.82976e-28
11.5026 -2.08011e-28 1.04574e-27
11.3019 -3.23867e-28 1.62819e-27
10.8243 -4.41672e-28 2.22043e-27
10.0721 -5.59281e-28 2.8117e-27
9.06919 -6.74436e-28 3.39062e-27
7.86025 -7.84825e-28 3.94558e-27
6.50914 -8.88149e-28 4.46503e-27
5.09481 -9.82196e-28 4.93783e-27
3.70568 -1.0649e-27 5.35363e-27
2.43287 -1.13442e-27 5.70311e-27
1.36276 -1.18917e-27 5.97837e-27
0.56976 -1.2279e-27 6.17309e-27
0.109779 -1.24973e-27 6.28281e-27
5.06839 1.22828e-27 -2.96532e-27
5.06989 1.22809e-27 -2.96487e-27
5.07767 1.22714e-27 -2.96257e-27
5.10018 1.22437e-27 -2.9559e-27
5.14899 1.21837e-27 -2.9414e-27
5.23799 1.20735e-27 -2.91481e-27
5.38233 1.18932e-27 -2.87127e-27
5.59692 1.16212e-27 -2.8056e-27
5.89462 1.12355e-27 -2.71248e-27
6.28427 1.07149e-27 -2.5868e-27
6.76858 1.00399e-27 -2.42385e-27
7.34222 9.19414e-28 -2.21966e-27
7.99037 8.16501e-28 -1.97121e-27
8.68797 6.94475e-28 -1.67661e-27
9.39991 5.53115e-28 -1.33534e-27
10.0823 3.92802e-28 -9.48308e-28
10.6852 2.14556e-28 -5.17984e-28
11.1557 2.00417e-29 -4.83849e-29
11.4429 -1.88448e-28 4.54953e-28
11.5026 -4.08029e-28 9.85069e-28
11.3019 -6.35289e-28 1.53372e-27
10.8243 -8.6637e-28 2.0916e-27
10.0721 -1.09707e-27 2.64856e-27
9.06919 -1.32295e-27 3.19389e-27
7.86025 -1.53949e-27 3.71666e-27
6.50914 -1.74217e-27 4.20596e-27
5.09481 -1.92665e-27 4.65134e-27
3.70568 -2.08888e-27 5.04301e-27
2.43287 -2.22524e-27 5.37222e-27
1.36276 -2.33265e-27 5.6315e-27
0.56976 -2.40862e-27 5.81492e-27
0.109779 -2.45143e-27 5.91828e-27
5.06839 1.78318e-27 -2.66872e-27
5.06989 1.78291e-27 -2.66832e-27
5.07767 1.78153e-27 -2.66624e-27
5.10018 1.77752e-27 -2.66024e-27
5.14899 1.76879e-27 -2.64719e-27
5.23799 1.7528e-27 -2.62326e-27
5.38233 1.72663e-27 -2.58408e-27
5.59692 1.68713e-27 -2.52497e-27
5.89462 1.63114e-27 -2.44117e-27
6.28427 1.55556e-27 -2.32805e-27
6.76858 1.45757e-27 -2.18141e-27
7.34222 1.33478e-27 -1.99764e-27
7.99037 1.18538e-27 -1.77404e-27
8.68797 1.00822e-27 -1.50891e-27
9.39991 8.02998e-28 -1.20177e-27
10.0823 5.7026e-28 -8.53454e-28
10.6852 3.11487e-28 -4.66174e-28
11.1557 2.9096e-29 -4.35453e-29
11.4429 -2.73584e-28 4.09447e-28
11.5026 -5.92366e-28 8.86538e-28
11.3019 -9.22296e-28 1.38031e-27
10.8243 -1.25777e-27 1.88239e-27
10.0721 -1.5927e-27 2.38364e-27
9.06919 -1.92063e-27 2.87443e-27
7.86025 -2.23499e-27 3.3449e-27
6.50914 -2.52923e-27 3.78527e-27
5.09481 -2.79706e-27 4.18609e-27
3.70568 -3.03259e-27 4.53859e-27
2.43287 -3.23055e-27 4.83487e-27
1.36276 -3.38648e-27 5.06822e-27
0.56976 -3.49677e-27 5.23329e-27
0.109779 -3.55893e-27 5.32631e-27
5.06839 2.26956e-27 -2.26956e-27
5.06989 2.26922e-27 -2.26922e-27
5.07767 2.26745e-27 -2.26745e-27
5.10018 2.26235e-27 -2.26235e-27
5.14899 2.25125e-27 -2.25125e-27
5.23799 2.2309e-27 -2.2309e-27
5.38233 2.19758e-27 -2.19758e-27
5.59692 2.14731e-27 -2.14731e-27
5.89462 2.07605e-27 -2.07605e-27
6.28427 1.97985e-27 -1.97985e-27
6.76858 1.85513e-27 -1.85513e-27
7.34222 1.69886e-27 -1.69886e-27
7.99037 1.5087e-27 -1.5087e-27
8.68797 1.28322e-27 -1.28322e-27
9.39991 1.02202e-27 -1.02202e-27
10.0823 7.25803e-28 -7.25803e-28
10.6852 3.96448e-28 -3.96448e-28
11.1557 3.70322e-29 -3.70322e-29
11.4429 -3.48206e-28 3.48206e-28
11.5026 -7.53939e-28 7.53939e-28
11.3019 -1.17386e-27 1.17386e-27
10.8243 -1.60084e-27 1.60084e-27
10.0721 -2.02712e-27 2.02712e-27
9.06919 -2.4445e-27 2.4445e-27
7.86025 -2.8446e-27 2.8446e-27
6.50914 -3.21911e-27 3.21911e-27
5.09481 -3.55998e-27 3.55998e-27
3.70568 -3.85975e-27 3.85975e-27
2.43287 -4.11172e-27 4.11172e-27
1.36276 -4.31017e-27 4.31017e-27
0.56976 -4.45055e-27 4.45055e-27
0.109779 -4.52965e-27 4.52965e-27
5.06839 2.66872e-27 -1.78318e-27
5.06989 2.66832e-27 -1.78291e-27
5.07767 2.66624e-27 -1.78153e-27
5.10018 2.66024e-27 -1.77752e-27
5.14899 2.64719e-27 -1.76879e-27
5.23799 2.62326e-27 -1.7528e-27
5.38233 2.58408e-27 -1.72663e-27
5.59692 2.52497e-27 -1.68713e-27
5.89462 2.44117e-27 -1.63114e-27
6.28427 2.32805e-27 -1.55556e-27
6.76858 2.18141e-27 -1.45757e-27
7.34222 1.99764e-27 -1.33478e-27
7.99037 1.77404e-27 -1.18538e-27
8.68797 1.50891e-27 -1.00822e-27
9.39991 1.20177e-27 -8.02998e-28
10.0823 8.53454e-28 -5.7026e-28
10.6852 4.66174e-28 -3.11487e-28
11.1557 4.35453e-29 -2.9096e-29
11.4429 -4.09447e-28 2.73584e-28
11.5026 -8.86538e-28 5.92366e-28
11.3019 -1.38031e-27 9.22296e-28
10.8243 -1.88239e-27 1.25777e-27
10.0721 -2.38364e-27 1.5927e-27
9.06919 -2.87443e-27 1.92063e-27
7.86025 -3.3449e-27 2.23499e-27
6.50914 -3.78527e-27 2.52923e-27
5.09481 -4.18609e-27 2.79706e-27
3.70568 -4.53859e-27 3.03259e-27
2.43287 -4.83487e-27 3.23055e-27
1.36276 -5.06822e-27 3.38648e-27
0.56976 -5.23329e-27 3.49677e-27
0.109779 -5.32631e-27 3.55893e-27
5.06839 2.96532e-27 -1.22828e-27
5.06989 2.96487e-27 -1.22809e-27
5.07767 2.96257e-27 -1.22714e-27
5.10018 2.9559e-27 -1.22437e-27
5.14899 2.9414e-27 -1.21837e-27
5.23799 2.91481e-27 -1.20735e-27
5.38233 2.87127e-27 -1.18932e-27
5.59692 2.8056e-27 -1.16212e-27
5.89462 2.71248e-27 -1.12355e-27
6.28427 2.5868e-27 -1.07149e-27
6.76858 2.42385e-27 -1.00399e-27
7.34222 2.21966e-27 -9.19414e-28
7.99037 1.97121e-27 -8.16501e-28
8.68797 1.67661e-27 -6.94475e-28
9.39991 1.33534e-27 -5.53115e-28
10.0823 9.48308e-28 -3.92802e-28
10.6852 5.17984e-28 -2.14556e-28
11.1557 4.83849e-29 -2.00417e-29
11.4429 -4.54953e-28 1.88448e-28
11.5026 -9.85069e-28 4.08029e-28
11.3019 -1.53372e-27 6.35289e-28
10.8243 -2.0916e-27 8.6637e-28
10.0721 -2.64856e-27 1.09707e-27
9.06919 -3.19389e-27 1.32295e-27
7.86025 -3.71666e-27 1.53949e-27
6.50914 -4.20596e-27 1.74217e-27
5.09481 -4.65134e-27 1.92665e-27
3.70568 -5.04301e-27 2.08888e-27
2.43287 -5.37222e-27 2.22524e-27
1.36276 -5.6315e-27 2.33265e-27
0.56976 -5.81492e-27 2.40862e-27
0.109779 -5.91828e-27 2.45143e-27
5.06839 3.14797e-27 -6.26169e-28
5.06989 3.14749e-27 -6.26076e-28
5.07767 3.14505e-27 -6.25589e-28
5.10018 3.13797e-27 -6.2418e-28
5.14899 3.12257e-27 -6.21118e-28
5.23799 3.09434e-27 -6.15503e-28
5.38233 3.04813e-27 -6.06311e-28
5.59692 2.97841e-27 -5.92443e-28
5.89462 2.87956e-27 -5.7278e-28
6.28427 2.74613e-27 -5.46239e-28
6.76858 2.57314e-27 -5.1183e-28
7.34222 2.35638e-27 -4.68713e-28
7.99037 2.09262e-27 -4.16248e-28
8.68797 1.77988e-27 -3.5404e-28
9.39991 1.41759e-27 -2.81975e-28
10.0823 1.00672e-27 -2.00249e-28
10.6852 5.49889e-28 -1.0938e-28
11.1557 5.13652e-29 -1.02172e-29
11.4429 -4.82976e-28 9.60699e-29
11.5026 -1.04574e-27 2.08011e-28
11.3019 -1.62819e-27 3.23867e-28
10.8243 -2.22043e-27 4.41672e-28
10.0721 -2.8117e-27 5.59281e-28
9.06919 -3.39062e-27 6.74436e-28
7.86025 -3.94558e-27 7.84825e-28
6.50914 -4.46503e-27 8.88149e-28
5.09481 -4.93783e-27 9.82196e-28
3.70568 -5.35363e-27 1.0649e-27
2.43287 -5.70311e-27 1.13442e-27
1.36276 -5.97837e-27 1.18917e-27
0.56976 -6.17309e-27 1.2279e-27
0.109779 -6.28281e-27 1.24973e-27
5.06839 3.20964e-27 -3.93091e-43
5.06989 3.20916e-27 -3.93132e-43
5.07767 3.20666e-27 -3.93005e-43
5.10018 3.19944e-27 -3.92375e-43
5.14899 3.18375e-27 -3.90782e-43
5.23799 3.15496e-27 -3.87654e-43
5.38233 3.10785e-27 -3.82342e-43
5.59692 3.03676e-27 -3.74148e-43
5.89462 2.93597e-27 -3.62356e-43
6.28427 2.79993e-27 -3.46272e-43
6.76858 2.62355e-27 -3.25257e-43
7.34222 2.40254e-27 -2.98766e-43
7.99037 2.13362e-27 -2.66375e-43
8.68797 1.81475e-27 -2.27813e-43
9.39991 1.44536e-27 -1.82989e-43
10.0823 1.02644e-27 -1.32005e-43
10.6852 5.60662e-28 -7.51702e-44
11.1557 5.23715e-29 -1.30031e-44
11.4429 -4.92438e-28 5.37704e-44
11.5026 -1.06623e-27 1.2423e-43
11.3019 -1.66009e-27 1.9728e-43
10.8243 -2.26393e-27 2.71675e-43
10.0721 -2.86678e-27 3.46053e-43
9.06919 -3.45705e-27 4.18973e-43
7.86025 -4.02288e-27 4.88955e-43
6.50914 -4.5525e-27 5.54526e-43
5.09481 -5.03457e-27 6.14262e-43
3.70568 -5.45851e-27 6.66835e-43
2.43287 -5.81485e-27 7.11052e-43
1.36276 -6.0955e-27 7.45895e-43
0.56976 -6.29403e-27 7.70552e-43
0.109779 -6.4059e-27 7.8445e-43
5.06839 3.14797e-27 6.26169e-28
5.06989 3.14749e-27 6.26076e-28
5.07767 3.14505e-27 6.25589e-28
5.10018 3.13797e-27 6.2418e-28
5.14899 3.12257e-27 6.21118e-28
5.23799 3.09434e-27 6.15503e-28
5.38233 3.04813e-27 6.06311e-28
5.59692 2.97841e-27 5.92443e-28
5.89462 2.87956e-27 5.7278e-28
6.28427 2.74613e-27 5.46239e-28
6.76858 2.57314e-27 5.1183e-28
7.34222 2.35638e-27 4.68713e-28
7.99037 2.09262e-27 4.16248e-28
8.68797 1.77988e-27 3.5404e-28
9.39991 1.41759e-27 2.81975e-28
10.0823 1.00672e-27 2.00249e-28
10.6852 5.49889e-28 1.0938e-28
11.1557 5.13652e-29 1.02172e-29
11.4429 -4.82976e-28 -9.60699e-29
11.5026 -1.04574e-27 -2.08011e-28
11.3019 -1.62819e-27 -3.23867e-28
10.8243 -2.22043e-27 -4.41672e-28
10.0721 -2.8117e-27 -5.59281e-28
9.06919 -3.39062e-27 -6.74436e-28
7.86025 -3.94558e-27 -7.84825e-28
6.50914 -4.46503e-27 -8.88149e-28
5.09481 -4.93783e-27 -9.82196e-28
3.70568 -5.35363e-27 -1.0649e-27
2.43287 -5.70311e-27 -1.13442e-27
1.36276 -5.97837e-27 -1.18917e-27
0.56976 -6.17309e-27 -1.2279e-27
0.109779 -6.28281e-27 -1.24973e-27
5.06839 2.96532e-27 1.22828e-27
5.06989 2.96487e-27 1.22809e-27
5.07767 2.96257e-27 1.22714e-27
5.10018 2.9559e-27 1.22437e-27
5.14899 2.9414e-27 1.21837e-27
5.23799 2.91481e-27 1.20735e-27
5.38233 2.87127e-27 1.18932e-27
5.59692 2.8056e-27 1.16212e-27
5.89462 2.71248e-27 1.12355e-27
6.28427 2.5868e-27 1.07149e-27
6.76858 2.42385e-27 1.00399e-27
7.34222 2.21966e-27 9.19414e-28
7.99037 1.97121e-27 8.16501e-28
8.68797 1.67661e-27 6.94475e-28
9.39991 1.33534e-27 5.53115e-28
10.0823 9.48308e-28 3.92802e-28
10.6852 5.17984e-28 2.14556e-28
11.1557 4.83849e-29 2.00417e-29
11.4429 -4.54953e-28 -1.88448e-28
11.5026 -9.85069e-28 -4.08029e-28
11.3019 -1.53372e-27 -6.35289e-28
10.8243 -2.0916e-27 -8.6637e-28
10.0721 -2.64856e-27 -1.09707e-27
9.06919 -3.19389e-27 -1.32295e-27
7.86025 -3.71666e-27 -1.53949e-27
6.50914 -4.20596e-27 -1.74217e-27
5.09481 -4.65134e-27 -1.92665e-27
3.70568 -5.04301e-27 -2.08888e-27
2.43287 -5.37222e-27 -2.22524e-27
1.36276 -5.6315e-27 -2.33265e-27